
Running Job 1 of 4 INP/c13ee
qchem INP/c13ee_36363.0 /home/qchem_scratch/qchem36363/ 1
/home/QCHEM/bin/mpi/mpirun_qchem -machinefile /home/QCHEM/bin/mpi/machines -np 1 /home/QCHEM/exe/qcprog.exe INP/c13ee_36363.0 /home/qchem_scratch/qchem36363/

Process 0 of 1 is on fermi.chem.uh.edu - thread support 0
initial socket setup ...start
initial socket setup ...done 
now start server 0 ... 
                  Welcome to Q-Chem
     A Quantum Leap Into The Future Of Chemistry

 Y. Shao, L. Fusti-Molnar, Y. Jung, J. Kussmann, C. Ochsenfeld, S. T. Brown, 
 A. T. B. Gilbert, L. V. Slipchenko, S. V. Levchenko, D. P. O'Neill, 
 R. A. DiStasio Jr., R. C. Lochan, T. Wang, G. J. O. Beran, N. A. Besley, 
 J. M. Herbert, C. Y. Lin, T. Van Voorhis, S. H. Chien, A. Sodt, R. P. Steele, 
 V. A. Rassolov, P. E. Maslen, P. P. Korambath, R. D. Adamson, B. Austin, 
 J. Baker, E. F. C. Byrd, H. Dachsel, R. J. Doerksen, A. Dreuw, B. D. Dunietz, 
 A. D. Dutoi, T. R. Furlani, S. R. Gwaltney, A. Heyden, S. Hirata, C.-P. Hsu, 
 G. Kedziora, R. Z. Khaliullin, P. Klunzinger, A. M. Lee, M. S. Lee, W. Liang, 
 I. Lotan, N. Nair, B. Peters, E. I. Proynov, P. A. Pieniazek, Y. M. Rhee, 
 J. Ritchie, E. Rosta, C. D. Sherrill, A. C. Simmonett, J. E. Subotnik, 
 H. L. Woodcock III, W. Zhang, A. T. Bell, A. K. Chakraborty, D. M. Chipman, 
 F. J. Keil, A. Warshel, W. J. Hehre, H. F. Schaefer III, J. Kong, 
 A. I. Krylov, P. M. W. Gill, M. Head-Gordon

 Additional authors for Version 3.1: 
 Z. Gan, Y. Zhao, N. E. Schultz, D. Truhlar, E. Epifanovsky, M. Oana

 Additional authors for Version 3.2: 
 R. Baer, B. R. Brooks, D. Casanova, J.-D. Chai, C.-L. Cheng, C. Cramer, 
 D. Crittenden, A. Ghysels, G. Hawkins, E. G. Hohenstein, C. Kelley, 
 W. Kurlancheek, D. Liotard, E. Livshits, P. Manohar, A. Marenich, 
 D. Neuhauser, R. Olson, M. A. Rohrdanz, K. S. Thanthiriwatte, A. J. W. Thom, 
 V. Vanovschi, C. F. Williams, Q. Wu, Z.-Q. You

 Additional authors for Version 4.0: 
 A. Aspuru-Guzik, Y. Bernard, C. Chang, J. Deng, A. Dreuw, M. Diedenhofen, 
 R. G. Edgar, D. Ghosh, W. A. Goddard III, M. Goldey, L. D. Jacobson, 
 M. Gordon, B. Kaduk, I. Kaliman, K. Khistyaev, R. King, A. Klamt, 
 D. Kosenkov, T. Kus, D. Lambrecht, A. Landau, A. W. Lange, K. Lawler, F. Liu, 
 J. Liu, R. Olivares-Amaya, S. P. Mao, J. Parkhill, N. Russ, M. Schmidt, 
 N. Shenvi, D. Small, Y. C. Su, E. Sundstrom, L. Vogt, O. Vydrov, M. Watson, 
 M. Wormit, X. Xu, S. Yeganeh, I. Y. Zhang, D. Zuev

 Additional authors for Version 4.1: 
 X. Feng, M. W. D. Hanson-Heine, P. Horn, H. Ji, A. Laurent, R. Peverati, 
 N. Mardirossian, N. Sergueev, S. Sharada, P. Zimmerman

 Q-Chem, Version 4.1, Q-Chem, Inc., Pittsburgh, PA (2013).

 Parts of Q-Chem use Armadillo 3.6.2 (Piazza del Duomo).
 http://arma.sourceforge.net/

 Intel X86 Linux Version 4.1.2

 Q-chem begins on Fri Feb 28 08:30:07 2014  

Host: 
0

     Scratch files written to /home/qchem_scratch/qchem36363//
 Feb414 28838_zgan 2267   
 Parallel job on  1  processors
Processing $rem in /home/QCHEM/config/preferences.
 MEM_TOTAL  2000 
Finally everything over in PARseQInput

--------------------------------------------------------------
User input:
--------------------------------------------------------------
$comment
C1,3ea
$end
$molecule
0 1
C       1.8407995908    -2.5587517746     0.4173681076
C       0.5812782769    -3.4202595736     0.3037130019
C      -0.6798835222    -2.6300843086     0.6584497979
C      -0.8070002403    -1.3615537125    -0.2014895251
C       0.4605735174    -0.4961348597    -0.0823017344
C       1.7351149063    -1.2855888380    -0.4437268314
H      -1.5621663381    -3.2494510580     0.5249474621
H       0.4949270121    -3.7997029482    -0.7136337428
H       0.6686764995    -4.2891558075     0.9503872134
H       1.9929258156    -2.2830014212     1.4592680830
H       2.7148723860    -3.1299456468     0.1173418278
H       0.3711523294     0.3698739890    -0.7314769448
H       0.5475759032    -0.1141153861     0.9322261761
H       1.6270806291    -1.6095821835    -1.4780250548
H      -0.6477973705    -2.3582097479     1.7118065997
C       2.9785910259    -0.4298886756    -0.3742776558
C       3.7607110311    -0.1586826461    -1.5611477992
C       3.4359814368     0.1546189771     0.8638980293
C       4.8787137734     0.6066038222    -1.5295262478
H       3.4359784722    -0.5833721885    -2.4952149428
C       4.5486789533     0.9240233934     0.9312012925
H       2.8738861442    -0.0273608424     1.7624911223
C       5.3284801698     1.1863129958    -0.2751962120
H       5.4442998474     0.7942924444    -2.4246458905
H       4.8852613078     1.3563466285     1.8526577674
C       6.5130542806     2.0009811422    -0.2135112220
H       7.0460529208     2.1559417013    -1.1535300944
O       6.9221030665     2.5015146927     0.8115043308
C      -3.4104135224     0.6895025030     1.6788228776
C      -4.4122688319     0.8951638777     0.6931908721
C      -2.2867725067    -0.0152046708     1.3963321414
C      -5.5989373718     1.6273668272     0.9564370326
C      -4.2123381024     0.3494183514    -0.5877869790
C      -2.0692793611    -0.5741856674     0.1035526588
C      -6.5346742510     1.8025982143    -0.0130090222
H      -5.7472657231     2.0432252626     1.9381691890
C      -5.2072139224     0.5484720506    -1.5809511840
C      -3.0227863840    -0.3833531040    -0.8489259148
C      -6.3347170822     1.2538112224    -1.3024342116
H      -7.4318700537     2.3588509702     0.1934426333
H      -5.0551575575     0.1312153068    -2.5614853507
H      -2.8856430471    -0.7944505440    -1.8350421816
H      -7.0828199152     1.3993443271    -2.0616556859
H      -3.5550978231     1.1036693789     2.6619105651
H      -0.8786737287    -1.6841171323    -1.2388427127
H      -1.5471734252    -0.1535259218     2.1647816790
$end


$rem
MEM_TOTAL	20000
MEM_STATIC	5000
JOBTYPE    freq 
SYMMETRY   FALSE
EXCHANGE     	HF
CORRELATION  	none  (built-in)
BASIS       	6-31g** 
cis_state_deriv   1
cis_n_roots       3
cis_singlets      false
cis_triplets      true
max_scf_cycles=100
max_cis_cycles=100
$end

--------------------------------------------------------------
 ----------------------------------------------------------------
             Standard Nuclear Orientation (Angstroms)
    I     Atom           X                Y                Z
 ----------------------------------------------------------------
    1      C       1.8407995908    -2.5587517746     0.4173681076
    2      C       0.5812782769    -3.4202595736     0.3037130019
    3      C      -0.6798835222    -2.6300843086     0.6584497979
    4      C      -0.8070002403    -1.3615537125    -0.2014895251
    5      C       0.4605735174    -0.4961348597    -0.0823017344
    6      C       1.7351149063    -1.2855888380    -0.4437268314
    7      H      -1.5621663381    -3.2494510580     0.5249474621
    8      H       0.4949270121    -3.7997029482    -0.7136337428
    9      H       0.6686764995    -4.2891558075     0.9503872134
   10      H       1.9929258156    -2.2830014212     1.4592680830
   11      H       2.7148723860    -3.1299456468     0.1173418278
   12      H       0.3711523294     0.3698739890    -0.7314769448
   13      H       0.5475759032    -0.1141153861     0.9322261761
   14      H       1.6270806291    -1.6095821835    -1.4780250548
   15      H      -0.6477973705    -2.3582097479     1.7118065997
   16      C       2.9785910259    -0.4298886756    -0.3742776558
   17      C       3.7607110311    -0.1586826461    -1.5611477992
   18      C       3.4359814368     0.1546189771     0.8638980293
   19      C       4.8787137734     0.6066038222    -1.5295262478
   20      H       3.4359784722    -0.5833721885    -2.4952149428
   21      C       4.5486789533     0.9240233934     0.9312012925
   22      H       2.8738861442    -0.0273608424     1.7624911223
   23      C       5.3284801698     1.1863129958    -0.2751962120
   24      H       5.4442998474     0.7942924444    -2.4246458905
   25      H       4.8852613078     1.3563466285     1.8526577674
   26      C       6.5130542806     2.0009811422    -0.2135112220
   27      H       7.0460529208     2.1559417013    -1.1535300944
   28      O       6.9221030665     2.5015146927     0.8115043308
   29      C      -3.4104135224     0.6895025030     1.6788228776
   30      C      -4.4122688319     0.8951638777     0.6931908721
   31      C      -2.2867725067    -0.0152046708     1.3963321414
   32      C      -5.5989373718     1.6273668272     0.9564370326
   33      C      -4.2123381024     0.3494183514    -0.5877869790
   34      C      -2.0692793611    -0.5741856674     0.1035526588
   35      C      -6.5346742510     1.8025982143    -0.0130090222
   36      H      -5.7472657231     2.0432252626     1.9381691890
   37      C      -5.2072139224     0.5484720506    -1.5809511840
   38      C      -3.0227863840    -0.3833531040    -0.8489259148
   39      C      -6.3347170822     1.2538112224    -1.3024342116
   40      H      -7.4318700537     2.3588509702     0.1934426333
   41      H      -5.0551575575     0.1312153068    -2.5614853507
   42      H      -2.8856430471    -0.7944505440    -1.8350421816
   43      H      -7.0828199152     1.3993443271    -2.0616556859
   44      H      -3.5550978231     1.1036693789     2.6619105651
   45      H      -0.8786737287    -1.6841171323    -1.2388427127
   46      H      -1.5471734252    -0.1535259218     2.1647816790
 ----------------------------------------------------------------
 Molecular Point Group                 C1    NOp =  1
 Largest Abelian Subgroup              C1    NOp =  1
 Nuclear Repulsion Energy =  1808.7605775189 hartrees
 There are       84 alpha and       84 beta electrons
 Requested basis set is 6-31G(d,p)
 There are 162 shells and 470 basis functions

Total QAlloc Memory Limit  20000 MB
Mega-Array Size      4888 MB
MEM_STATIC part      5000 MB
 A cutoff of  1.0D-11 yielded   6791 shell pairs
 There are     58109 function pairs
 Smallest overlap matrix eigenvalue = 2.65E-04
 Guess from superposition of atomic densities
 Warning:  Energy on first SCF cycle will be non-variational
 A restricted Hartree-Fock SCF calculation will be
 performed using Pulay DIIS extrapolation
 SCF converges when DIIS error is below 1.0E-08
 ---------------------------------------
  Cycle       Energy         DIIS Error
 ---------------------------------------
    1    -969.1000851413      3.69E-02
    2    -958.3855853719      2.89E-03
    3    -958.6411181813      1.58E-03
    4    -958.6927015697      5.82E-04
    5    -958.7024438961      7.21E-05
    6    -958.7026827493      3.53E-05
    7    -958.7027523475      1.58E-05
    8    -958.7027712153      7.08E-06
    9    -958.7027754011      2.14E-06
   10    -958.7027758328      9.46E-07
   11    -958.7027759286      4.68E-07
   12    -958.7027759616      2.06E-07
   13    -958.7027759681      8.23E-08
   14    -958.7027759697      2.46E-08
   15    -958.7027759692      8.27E-09 Convergence criterion met
 ---------------------------------------
 SCF time:  CPU 458.84 s  wall 463.81 s
 SCF   energy in the final basis set = -958.7027759692
 Total energy in the final basis set = -958.7027759692
 Direct RCIS calculation will be performed
 Triplet excitation energies requested
 CIS energy converged when residual is below 10e- 6
 ---------------------------------------------------
 Iter    Rts Conv    Rts Left    Ttl Dev     Max Dev
 ---------------------------------------------------
   1         0           3      0.000631    0.000436
   2         0           3      0.001114    0.000508
   3         0           3      0.000467    0.000228
   4         0           3      0.000307    0.000144
   5         0           3      0.000200    0.000121
   6         0           3      0.000071    0.000043
   7         0           3      0.000028    0.000018
   8         1           2      0.000016    0.000012
   9         1           2      0.000017    0.000013
  10         1           2      0.000211    0.000209
  11         2           1      0.000070    0.000069
  12         2           1      0.000029    0.000028
  13         2           1      0.000017    0.000016
  14         2           1      0.000012    0.000011
  15         2           1      0.000011    0.000010
  16         2           1      0.000006    0.000005
  17         2           1      0.000004    0.000003
  18         2           1      0.000004    0.000003
  19         2           1      0.000004    0.000003
  20         2           1      0.000007    0.000006
  21         2           1      0.000052    0.000051
  22         2           1      0.000083    0.000082
  23         2           1      0.000036    0.000035
  24         2           1      0.000014    0.000013
  25         2           1      0.000006    0.000006
  26         2           1      0.000005    0.000004
  27         2           1      0.000003    0.000002
  28         3           0      0.000002    0.000001    Roots Converged
 ---------------------------------------------------
 
 
 ---------------------------------------------------
               CIS Excitation Energies              
 ---------------------------------------------------

 Excited state   1: excitation energy (eV) =    2.5554
    Total energy for state   1:   -958.608867056796
    Multiplicity: Triplet 
    Trans. Mom.:  0.0000 X   0.0000 Y   0.0000 Z
    Strength   :  0.0000
    D( 81) --> V(  4) amplitude =  0.2878
    D( 82) --> V(  1) amplitude =  0.8188
    D( 83) --> V(  1) amplitude = -0.3527

 Excited state   2: excitation energy (eV) =    2.7854
    Total energy for state   2:   -958.600415853942
    Multiplicity: Triplet 
    Trans. Mom.:  0.0000 X   0.0000 Y   0.0000 Z
    Strength   :  0.0000
    D( 80) --> V(  5) amplitude = -0.3256
    D( 83) --> V(  3) amplitude =  0.3450
    D( 84) --> V(  2) amplitude = -0.7991

 Excited state   3: excitation energy (eV) =    4.0911
    Total energy for state   3:   -958.552431070045
    Multiplicity: Triplet 
    Trans. Mom.:  0.0000 X   0.0000 Y   0.0000 Z
    Strength   :  0.0000
    D( 79) --> V(  1) amplitude = -0.7964
    D( 79) --> V(  6) amplitude = -0.4402
    D( 79) --> V(  7) amplitude = -0.2883
 
 ---------------------------------------------------
 Calculating Relaxed Density
 ---------------------------------------------------
 Iter    Rts Conv    Rts Left    Ttl Dev     Max Dev
 ---------------------------------------------------
   1         0           3      0.000438    0.000217
   2         0           3      0.000141    0.000064
   3         0           3      0.000070    0.000032
   4         0           3      0.000022    0.000011
   5         0           3      0.000007    0.000003
   6         3           0      0.000000    0.000000    Roots Converged
 ---------------------------------------------------
  Timing summary (seconds)
  CPU time       2420.12s
  System time       0.00s
  Wall time      2421.90s
 STSman time:  CPU 0.00 s  wall 0.00 s

 Analysis of SCF Wavefunction
 
 --------------------------------------------------------------
                    Orbital Energies (a.u.)
 --------------------------------------------------------------
 
 Alpha MOs
 -- Occupied --
-20.548 -11.322 -11.272 -11.259 -11.253 -11.248 -11.244 -11.244
-11.242 -11.239 -11.239 -11.238 -11.237 -11.234 -11.233 -11.233
-11.231 -11.231 -11.231 -11.229 -11.229 -11.228 -11.225 -11.224
 -1.378  -1.180  -1.162  -1.137  -1.109  -1.061  -1.048  -1.034
 -1.031  -0.998  -0.993  -0.974  -0.898  -0.864  -0.847  -0.840
 -0.827  -0.814  -0.804  -0.779  -0.767  -0.706  -0.702  -0.691
 -0.680  -0.657  -0.649  -0.640  -0.623  -0.619  -0.616  -0.603
 -0.602  -0.598  -0.588  -0.580  -0.571  -0.566  -0.556  -0.543
 -0.539  -0.525  -0.524  -0.520  -0.502  -0.495  -0.489  -0.481
 -0.480  -0.472  -0.460  -0.452  -0.438  -0.431  -0.416  -0.380
 -0.355  -0.318  -0.311  -0.288
 -- Virtual --
  0.070   0.101   0.129   0.140   0.188   0.219   0.221   0.222
  0.241   0.242   0.256   0.260   0.265   0.281   0.283   0.291
  0.291   0.299   0.312   0.317   0.320   0.323   0.328   0.330
  0.334   0.343   0.353   0.365   0.375   0.383   0.388   0.396
  0.412   0.415   0.417   0.425   0.434   0.440   0.455   0.457
  0.481   0.481   0.491   0.494   0.514   0.516   0.522   0.537
  0.547   0.569   0.583   0.594   0.666   0.691   0.698   0.706
  0.717   0.719   0.725   0.728   0.736   0.740   0.741   0.747
  0.748   0.753   0.758   0.768   0.780   0.785   0.793   0.795
  0.798   0.803   0.807   0.815   0.821   0.822   0.827   0.837
  0.843   0.852   0.860   0.864   0.870   0.876   0.886   0.902
  0.906   0.920   0.927   0.930   0.944   0.949   0.953   0.969
  0.975   0.984   0.999   1.003   1.024   1.033   1.044   1.053
  1.057   1.064   1.066   1.071   1.077   1.079   1.082   1.085
  1.090   1.095   1.100   1.104   1.112   1.115   1.118   1.123
  1.131   1.133   1.147   1.163   1.166   1.175   1.187   1.196
  1.199   1.209   1.214   1.219   1.221   1.228   1.231   1.239
  1.249   1.254   1.259   1.277   1.280   1.304   1.308   1.327
  1.343   1.366   1.379   1.388   1.393   1.401   1.419   1.429
  1.441   1.458   1.462   1.484   1.493   1.505   1.506   1.519
  1.549   1.567   1.573   1.602   1.608   1.619   1.627   1.639
  1.650   1.656   1.657   1.659   1.676   1.688   1.693   1.696
  1.701   1.708   1.719   1.723   1.730   1.767   1.781   1.796
  1.808   1.818   1.835   1.850   1.884   1.909   1.938   1.970
  1.994   2.023   2.034   2.041   2.048   2.054   2.058   2.071
  2.078   2.095   2.106   2.112   2.115   2.132   2.143   2.149
  2.156   2.167   2.176   2.184   2.192   2.196   2.200   2.205
  2.214   2.218   2.226   2.233   2.238   2.242   2.251   2.265
  2.271   2.275   2.290   2.292   2.301   2.301   2.318   2.340
  2.356   2.358   2.363   2.396   2.408   2.416   2.429   2.441
  2.447   2.453   2.461   2.465   2.487   2.497   2.505   2.524
  2.529   2.538   2.549   2.567   2.583   2.592   2.593   2.608
  2.614   2.629   2.632   2.648   2.655   2.661   2.679   2.687
  2.701   2.701   2.708   2.716   2.718   2.727   2.731   2.738
  2.744   2.755   2.765   2.777   2.779   2.788   2.797   2.800
  2.810   2.833   2.836   2.843   2.853   2.859   2.880   2.882
  2.889   2.902   2.910   2.919   2.921   2.927   2.945   2.950
  2.953   2.960   2.975   2.981   3.005   3.010   3.019   3.025
  3.045   3.061   3.067   3.081   3.093   3.103   3.115   3.127
  3.149   3.159   3.170   3.175   3.182   3.200   3.208   3.214
  3.225   3.232   3.241   3.262   3.274   3.290   3.327   3.359
  3.371   3.390   3.403   3.426   3.440   3.484   3.521   3.532
  3.554   3.606   3.630   3.631   3.638   3.660   3.660   3.688
  3.699   3.708   3.733   3.737   3.787   3.796   3.809   3.857
  3.873   3.887   3.889   3.915   3.921   3.928   3.988   4.169
  4.201   4.316   4.363   4.525   4.545   4.571   4.573   4.584
  4.605   4.616   4.650   4.730   4.765   4.793   4.831   4.845
  4.863   4.883   4.940   4.947   5.085   5.178   5.188   5.228
  5.270   5.381
 --------------------------------------------------------------
 
          Ground-State Mulliken Net Atomic Charges

     Atom                 Charge (a.u.)
  ----------------------------------------
      1 C                    -0.199234
      2 C                    -0.228487
      3 C                    -0.198708
      4 C                    -0.161613
      5 C                    -0.182291
      6 C                    -0.167659
      7 H                     0.126572
      8 H                     0.110233
      9 H                     0.122168
     10 H                     0.110154
     11 H                     0.126072
     12 H                     0.134407
     13 H                     0.110001
     14 H                     0.125272
     15 H                     0.107462
     16 C                     0.026614
     17 C                    -0.173895
     18 C                    -0.153119
     19 C                    -0.108896
     20 H                     0.151055
     21 C                    -0.086323
     22 H                     0.152778
     23 C                    -0.179970
     24 H                     0.165275
     25 H                     0.197530
     26 C                     0.396409
     27 H                     0.107162
     28 O                    -0.539168
     29 C                    -0.124921
     30 C                    -0.041059
     31 C                    -0.149098
     32 C                    -0.125231
     33 C                    -0.026907
     34 C                     0.010074
     35 C                    -0.159915
     36 H                     0.152108
     37 C                    -0.127474
     38 C                    -0.158979
     39 C                    -0.157622
     40 H                     0.150748
     41 H                     0.150510
     42 H                     0.146709
     43 H                     0.150670
     44 H                     0.153500
     45 H                     0.120295
     46 H                     0.146789
  ----------------------------------------
  Sum of atomic charges =     0.000000

 -----------------------------------------------------------------
                    Cartesian Multipole Moments
 -----------------------------------------------------------------
    Charge (ESU x 10^10)
                 0.0000
    Dipole Moment (Debye)
         X      -2.8763      Y      -2.5997      Z      -2.1296
       Tot       4.4234
    Quadrupole Moments (Debye-Ang)
        XX    -165.1668     XY     -18.5554     YY    -149.3053
        XZ     -14.8463     YZ      -1.3609     ZZ    -130.1927
    Octopole Moments (Debye-Ang^2)
       XXX    -252.6279    XXY     -50.8525    XYY     -39.7829
       YYY     -25.1904    XXZ    -130.8686    XYZ     -48.3654
       YYZ      -7.1295    XZZ       2.2733    YZZ       4.3149
       ZZZ      -1.3587
    Hexadecapole Moments (Debye-Ang^3)
      XXXX  -15811.2055   XXXY   -1063.2666   XXYY   -3130.9872
      XYYY     -74.0612   YYYY   -2229.3133   XXXZ    -692.4693
      XXYZ    -217.8431   XYYZ    -109.6135   YYYZ     -19.2787
      XXZZ   -2407.9485   XYZZ      -8.5007   YYZZ    -529.8005
      XZZZ      -1.7438   YZZZ      31.2888   ZZZZ    -937.0363
 -----------------------------------------------------------------
 Calculating MO derivatives via CPSCF
   1         3         138      0.160298    0.017763
   2         3         138      0.033709    0.004858
   3         3         138      0.006883    0.001198
   4        10         131      0.000982    0.000176
   5       123          18      0.000065    0.000019
   6       138           3      0.000005    0.000002
   7       141           0      0.000000    0.000000    Roots Converged
 Calculating CIS amplitude derivatives via CPCIS
 CIS relaxed dipole moment
            1
    1   0.2273817
    2   0.1278349
    3   0.0177059
	Magnitude:	 0.261 au	 0.665 Debye
 CIS Excitation Energy is    0.0939089124
 Gradient of the CIS Excitation Energy
            1           2           3           4           5           6
    1   0.0014880  -0.0001836  -0.0000132   0.0004592   0.0008006  -0.0036625
    2   0.0003237   0.0004092   0.0000042  -0.0005511   0.0014887  -0.0027843
    3   0.0008318  -0.0007135   0.0001155  -0.0005041   0.0005306  -0.0011725
            7           8           9          10          11          12
    1   0.0000638  -0.0000250   0.0002674   0.0000276  -0.0000462   0.0000561
    2   0.0000367  -0.0000442   0.0002190   0.0000655   0.0000830  -0.0000473
    3  -0.0000264   0.0000462  -0.0000291  -0.0003352   0.0000661   0.0000935
           13          14          15          16          17          18
    1   0.0001310   0.0004519  -0.0000066   0.0424845  -0.0473386  -0.0317317
    2  -0.0000946   0.0003959  -0.0000059   0.0285937  -0.0251917  -0.0284255
    3  -0.0002867   0.0003281  -0.0000325  -0.0034939   0.0323129  -0.0307221
           19          20          21          22          23          24
    1   0.0349525  -0.0009015   0.0449126  -0.0006921  -0.0604342   0.0003228
    2   0.0356086  -0.0005517   0.0192750  -0.0005372  -0.0418177   0.0000097
    3   0.0544402   0.0003699  -0.0505902  -0.0002378  -0.0044146  -0.0008421
           25          26          27          28          29          30
    1   0.0003623   0.0229419   0.0008982  -0.0057966  -0.0000312   0.0000378
    2   0.0003926   0.0223185   0.0003482  -0.0096777   0.0000109  -0.0000261
    3   0.0008094   0.0308617  -0.0012093  -0.0262666   0.0000080  -0.0000177
           31          32          33          34          35          36
    1   0.0000817  -0.0000176  -0.0000363   0.0000527   0.0000273   0.0000046
    2  -0.0000569   0.0000201  -0.0000016   0.0003318  -0.0000117  -0.0000044
    3  -0.0000142   0.0000364   0.0000389   0.0000965   0.0000165  -0.0000122
           37          38          39          40          41          42
    1   0.0000195   0.0000999   0.0000074   0.0000092  -0.0000038  -0.0000066
    2  -0.0000267  -0.0000854  -0.0000088  -0.0000033   0.0000058   0.0000207
    3  -0.0000325  -0.0000625  -0.0000158   0.0000001   0.0000039  -0.0000057
           43          44          45          46
    1   0.0000094   0.0000127  -0.0000500  -0.0000052
    2  -0.0000016  -0.0000070  -0.0000141   0.0000153
    3   0.0000044  -0.0000160   0.0000124   0.0000300
gradient:-0.001498
gradient:-0.000320
gradient:-0.000842
gradient:0.000188
gradient:-0.000402
gradient:0.000714
gradient:0.000023
gradient:-0.000005
gradient:-0.000114
gradient:-0.000461
gradient:0.000555
gradient:0.000504
gradient:-0.000794
gradient:-0.001495
gradient:-0.000537
gradient:0.003631
gradient:0.002765
gradient:0.001194
gradient:-0.000064
gradient:-0.000037
gradient:0.000026
gradient:0.000026
gradient:0.000047
gradient:-0.000044
gradient:-0.000267
gradient:-0.000217
gradient:0.000028
gradient:-0.000030
gradient:-0.000066
gradient:0.000335
gradient:0.000040
gradient:-0.000082
gradient:-0.000064
gradient:-0.000058
gradient:0.000043
gradient:-0.000091
gradient:-0.000132
gradient:0.000093
gradient:0.000289
gradient:-0.000454
gradient:-0.000398
gradient:-0.000329
gradient:0.000008
gradient:0.000007
gradient:0.000032
gradient:-0.042433
gradient:-0.028568
gradient:0.003450
gradient:0.047293
gradient:0.025171
gradient:-0.032266
gradient:0.031760
gradient:0.028443
gradient:0.030712
gradient:-0.034921
gradient:-0.035580
gradient:-0.054412
gradient:0.000907
gradient:0.000552
gradient:-0.000382
gradient:-0.044929
gradient:-0.019289
gradient:0.050576
gradient:0.000703
gradient:0.000544
gradient:0.000235
gradient:0.060327
gradient:0.041742
gradient:0.004404
gradient:-0.000317
gradient:-0.000008
gradient:0.000832
gradient:-0.000359
gradient:-0.000387
gradient:-0.000797
gradient:-0.022901
gradient:-0.022297
gradient:-0.030893
gradient:-0.000898
gradient:-0.000352
gradient:0.001192
gradient:0.005816
gradient:0.009701
gradient:0.026319
gradient:0.000026
gradient:-0.000009
gradient:-0.000008
gradient:-0.000041
gradient:0.000027
gradient:0.000017
gradient:-0.000077
gradient:0.000055
gradient:0.000012
gradient:0.000023
gradient:-0.000022
gradient:-0.000033
gradient:0.000036
gradient:0.000002
gradient:-0.000037
gradient:-0.000050
gradient:-0.000334
gradient:-0.000100
gradient:-0.000029
gradient:0.000014
gradient:-0.000014
gradient:-0.000003
gradient:0.000003
gradient:0.000011
gradient:-0.000013
gradient:0.000023
gradient:0.000032
gradient:-0.000095
gradient:0.000083
gradient:0.000062
gradient:-0.000011
gradient:0.000010
gradient:0.000013
gradient:-0.000012
gradient:0.000005
gradient:0.000001
gradient:0.000005
gradient:-0.000006
gradient:-0.000003
gradient:0.000005
gradient:-0.000019
gradient:0.000009
gradient:-0.000012
gradient:0.000002
gradient:-0.000007
gradient:-0.000014
gradient:0.000007
gradient:0.000016
gradient:0.000051
gradient:0.000014
gradient:-0.000012
gradient:0.000006
gradient:-0.000016
gradient:-0.000029
gradient:0.227916
gradient:0.127943
gradient:0.017385
   1        20         121      0.018033    0.003304
   2        43          98      0.003388    0.000417
   3        74          67      0.000703    0.000068
   4       105          36      0.000152    0.000014
   5       130          11      0.000019    0.000003
   6       141           0      0.000000    0.000000    Roots Converged
 CPCIS time:  CPU 7366.10 s  wall 7444.39 s
 transition dipole derivative
            1           2           3
    1  -0.0073079   0.0528076   0.0149381
    2  -0.0330411  -0.0832141   0.0493390
    3   0.0500830   0.0725359  -0.0234118
    4  -0.0205333  -0.0231334  -0.0021896
    5  -0.0080694   0.0037992  -0.0021864
    6  -0.0058023  -0.0140421   0.0070299
    7   0.0037010   0.0004821   0.0039579
    8   0.0027077   0.0030659   0.0031385
    9   0.0031905   0.0014096  -0.0000660
   10  -0.0289886  -0.0170021  -0.0232991
   11  -0.0371369  -0.0113891  -0.0120386
   12  -0.0066490   0.0019561   0.0074036
   13  -0.0876906   0.0011043   0.0361716
   14   0.1167628  -0.0095988   0.0420532
   15   0.0426193   0.0183506  -0.0080468
   16   0.3766276   0.0589284  -0.0183106
   17   0.0425254   0.2675130  -0.0878322
   18  -0.0656028  -0.0955672   0.0248049
   19   0.0021784   0.0019875   0.0006977
   20   0.0019006   0.0008181   0.0004938
   21  -0.0009046  -0.0004312   0.0000423
   22   0.0016058   0.0020606   0.0045075
   23   0.0005321   0.0009690   0.0040247
   24   0.0014349   0.0023538   0.0025721
   25   0.0041009   0.0072178   0.0006666
   26   0.0008880   0.0006635   0.0012993
   27   0.0005677   0.0021625  -0.0028285
   28  -0.0004063  -0.0037138  -0.0062757
   29  -0.0014482  -0.0015724  -0.0155221
   30  -0.0027464  -0.0003448   0.0275272
   31  -0.0074315  -0.0059313  -0.0002462
   32  -0.0023533   0.0066110   0.0033878
   33   0.0000986  -0.0013184  -0.0065738
   34  -0.0004387  -0.0047850   0.0080183
   35  -0.0091923  -0.0036805  -0.0068361
   36   0.0033825  -0.0011592  -0.0034040
   37   0.0011544  -0.0069737  -0.0226800
   38  -0.0049179   0.0029235   0.0070221
   39  -0.0058318   0.0038443   0.0207567
   40  -0.0047619   0.0060768   0.0349754
   41  -0.0009590   0.0054626   0.0299485
   42   0.0008192   0.0056442   0.0236422
   43  -0.0005659  -0.0004630  -0.0010498
   44  -0.0002325  -0.0003957   0.0002642
   45  -0.0010907  -0.0006640   0.0004482
   46  -1.3514854  -0.1277562   0.5682288
   47  -0.2258298  -1.1404896  -0.2325238
   48   0.2199962  -0.4704297  -3.7621157
   49   2.1407344   0.7440866  -1.2500410
   50   0.9203443   1.1106623  -0.5712229
   51  -0.5288170  -0.0768527   1.8605762
   52   1.8439184   1.0178342   0.9119991
   53   0.9335329   1.4389043   0.8591409
   54   0.4802852   0.5547989   1.7051516
   55  -1.9296953  -0.9551562  -0.4635253
   56  -0.9616534  -1.4080557  -0.4920679
   57  -0.4506946  -0.4712584  -1.4679646
   58  -0.0273798   0.0278813  -0.0393602
   59   0.0325720  -0.0617089  -0.0100290
   60  -0.0196133   0.0043700  -0.0010513
   61  -2.1393683  -0.8997046   0.3980296
   62  -0.9100629  -1.2611254   0.0730207
   63   0.4046802   0.0663696  -1.5598396
   64  -0.0312276   0.0331492   0.0106606
   65   0.0316509  -0.0501343   0.0239944
   66   0.0034094   0.0185725  -0.0030023
   67   1.7382908   0.5863840   0.1506341
   68   0.5448075   1.3759659   0.5377721
   69  -0.1018598   0.3656086   2.8815781
   70   0.0286636  -0.0404857  -0.0007820
   71  -0.0405302   0.0580196  -0.0124241
   72   0.0011563  -0.0106226   0.0368183
   73   0.0281219  -0.0370187   0.0095717
   74  -0.0359898   0.0609453  -0.0031780
   75   0.0142324   0.0011013   0.0467404
   76  -0.9868921  -0.6251857  -0.7532887
   77  -0.6309143  -0.8635863  -0.6587820
   78  -0.7520209  -0.6509434  -0.9816349
   79  -0.0033269  -0.0310455   0.0056101
   80  -0.0319826   0.0239482   0.0037818
   81   0.0026110   0.0016549   0.0450661
   82   0.4439391   0.2307390   0.3985926
   83   0.3006547   0.5326217   0.4662095
   84   0.7113669   0.6715863   1.1280050
   85   0.0374821  -0.0263259  -0.0265417
   86  -0.0159333   0.0205685   0.0202868
   87   0.0056432   0.0027507   0.0206056
   88  -0.0252320   0.0059363  -0.0179837
   89   0.0090395  -0.0065577   0.0098709
   90  -0.0072802   0.0030441  -0.0041889
   91  -0.0252433   0.0276820   0.0422089
   92   0.0162336  -0.0254859  -0.0323079
   93   0.0144598  -0.0173839  -0.0354415
   94   0.0230634   0.0079009   0.0538788
   95  -0.0076739   0.0046424  -0.0150729
   96   0.0061871   0.0120407   0.0459704
   97   0.0237311  -0.0100369   0.0041319
   98  -0.0094070   0.0078254  -0.0046745
   99   0.0052501  -0.0036701   0.0004990
  100   0.0218179   0.0159076   0.0713863
  101   0.0009104   0.0089925  -0.0088810
  102   0.0076697   0.0275600   0.0865967
  103  -0.0101055  -0.0102035  -0.0418205
  104   0.0017170  -0.0068762  -0.0028354
  105  -0.0034475  -0.0229681  -0.0796438
  106   0.0000724  -0.0000004   0.0006968
  107  -0.0004119  -0.0006943  -0.0003020
  108  -0.0003095  -0.0003198  -0.0004698
  109  -0.0308261   0.0274624   0.0389326
  110   0.0114029  -0.0199928  -0.0244727
  111  -0.0059649  -0.0014034  -0.0145832
  112  -0.0249193  -0.0068197  -0.0555707
  113   0.0105143  -0.0068255   0.0165405
  114  -0.0133711  -0.0153722  -0.0612975
  115   0.0229526  -0.0263083  -0.0499014
  116  -0.0130562   0.0240470   0.0392278
  117  -0.0086018   0.0161726   0.0398683
  118   0.0007674   0.0005129   0.0000543
  119  -0.0001515   0.0001783  -0.0005938
  120  -0.0001651  -0.0004663  -0.0008933
  121  -0.0002798   0.0002276   0.0002643
  122   0.0004645   0.0005392   0.0001776
  123  -0.0000316   0.0001797   0.0008964
  124  -0.0003605  -0.0000363  -0.0002788
  125   0.0007444   0.0011203   0.0011386
  126  -0.0006324  -0.0003107   0.0007866
  127   0.0003807   0.0000816   0.0000617
  128  -0.0002923  -0.0003184   0.0002554
  129   0.0000795   0.0007475   0.0008729
  130   0.0005244  -0.0002734  -0.0007191
  131  -0.0009529  -0.0008112  -0.0004025
  132  -0.0004019  -0.0004643  -0.0006135
  133   0.0008991   0.0018952   0.0050780
  134   0.0014037   0.0013950   0.0030173
  135   0.0011394   0.0005466   0.0025425
  136  -0.0002607   0.0000133  -0.0000891
  137   0.0008834   0.0003112  -0.0012196
  138   0.0014770   0.0006317   0.0002695
mem use when entering cis_hess,0,625000000
mem use when entering PV,0,625000000
mem use when entering PT + WS,0,625000000
mem use when entering II^xy,0,625000000
mem use when entering PCM,0,625000000
mem use when entering E^xy,0,625000000
mem use when entering PF,0,625000000
mem use when entering ws,0,625000000
mem use when entering RPA_Hess_IIx,0,625000000
Nshell = 162 
s2Bra.ftnCode() = 360011 
 hess cis_hess_iirx
            1           2           3           4           5           6
    1  -0.0527203  -0.0394952   0.0128554  -0.0000601   0.0004392  -0.0005309
    2  -0.0394952  -0.0348264   0.0113435   0.0000457   0.0014620  -0.0009045
    3   0.0128554   0.0113435  -0.0082116  -0.0009013  -0.0017925   0.0015278
    4  -0.0000601   0.0000457  -0.0009013  -0.0020448  -0.0021342   0.0008462
    5   0.0004392   0.0014620  -0.0017925  -0.0021342  -0.0031003   0.0014179
    6  -0.0005309  -0.0009045   0.0015278   0.0008462   0.0014179  -0.0010989
    7   0.0007366   0.0006195  -0.0001823   0.0001066   0.0000147   0.0000803
    8   0.0001546   0.0001262   0.0001558   0.0001627   0.0003530  -0.0000909
    9   0.0001895   0.0001428  -0.0000517   0.0000173  -0.0000179   0.0000246
   10  -0.0018093  -0.0017232   0.0003112  -0.0009634  -0.0009029   0.0003204
   11  -0.0008138  -0.0004486  -0.0001997  -0.0003443  -0.0005055   0.0002378
   12   0.0003261   0.0003200  -0.0003129   0.0000460   0.0000037   0.0000950
   13  -0.0032689  -0.0013559   0.0000137  -0.0012126  -0.0016009   0.0008444
   14  -0.0010581  -0.0019727   0.0007008  -0.0006085  -0.0004644   0.0002208
   15  -0.0000416   0.0002934   0.0007077   0.0000314   0.0001246  -0.0002391
   16   0.0841551   0.0611257  -0.0183298   0.0103027   0.0102852  -0.0043055
   17  -0.0039561   0.0032300  -0.0019167  -0.0050268  -0.0051850   0.0023023
   18   0.0079474   0.0045434  -0.0005401   0.0016308   0.0017281  -0.0006446
   19  -0.0000723  -0.0000495   0.0000208   0.0000055   0.0000146  -0.0000049
   20   0.0001507   0.0001094  -0.0000474  -0.0000097  -0.0000248   0.0000116
   21  -0.0000356  -0.0000253   0.0000106   0.0000022   0.0000061  -0.0000023
   22  -0.0001870  -0.0001538   0.0000437  -0.0000049   0.0000177  -0.0000068
   23  -0.0001505  -0.0001181   0.0000279   0.0000231   0.0000202  -0.0000027
   24   0.0000590   0.0000596  -0.0000319  -0.0000442  -0.0000501   0.0000408
   25   0.0002026   0.0003049  -0.0001944   0.0003827   0.0001849   0.0000847
   26   0.0001934   0.0002815  -0.0001486   0.0003582   0.0002003   0.0000847
   27   0.0000841   0.0000908  -0.0000240  -0.0000360  -0.0000096   0.0000418
   28   0.0016816   0.0009984  -0.0002907  -0.0001810  -0.0001423   0.0000571
   29   0.0008795   0.0009851  -0.0002066  -0.0000409  -0.0000718   0.0000740
   30  -0.0000460  -0.0001461   0.0003790   0.0000941   0.0000634  -0.0000516
   31   0.0057646   0.0034901  -0.0007477   0.0001498   0.0002250  -0.0001293
   32   0.0045376   0.0034266  -0.0008306   0.0000250  -0.0000138  -0.0000931
   33  -0.0003433  -0.0003508   0.0003516   0.0000223   0.0000505  -0.0000428
   34   0.0011269   0.0005840   0.0001545  -0.0000839  -0.0002017   0.0001359
   35   0.0008421   0.0005938  -0.0000234   0.0000143  -0.0000377   0.0000398
   36   0.0000906   0.0000274  -0.0000110  -0.0000147  -0.0000247   0.0000143
   37  -0.0006000  -0.0003841  -0.0000479  -0.0000812  -0.0000797   0.0000201
   38  -0.0010910  -0.0006980   0.0001184  -0.0000375  -0.0000318  -0.0000173
   39   0.0002775   0.0002010  -0.0000460   0.0000606   0.0000619  -0.0000158
   40  -0.0003640  -0.0001237   0.0001228  -0.0000551  -0.0000602   0.0000429
   41  -0.0000863  -0.0002165  -0.0000347   0.0000572   0.0000644  -0.0000532
   42   0.0002229   0.0001533  -0.0000473  -0.0000122  -0.0000170   0.0000167
   43  -0.0000351  -0.0000284   0.0000133  -0.0000030   0.0000020  -0.0000030
   44   0.0000271   0.0000211  -0.0000134  -0.0000040  -0.0000085   0.0000050
   45   0.0000028   0.0000039  -0.0000012  -0.0000011  -0.0000011   0.0000008
   46  -0.0204825  -0.0148482   0.0080276  -0.0043354  -0.0027788   0.0005802
   47   0.0199502   0.0148305  -0.0068234   0.0048858   0.0033780  -0.0014123
   48  -0.0110435  -0.0088224   0.0044791  -0.0012289  -0.0008502   0.0000050
   49   0.0035013   0.0025641  -0.0058602  -0.0006475  -0.0019922   0.0013393
   50  -0.0015453  -0.0002741   0.0052857   0.0004051   0.0016239  -0.0008016
   51  -0.0007848  -0.0011728   0.0005481   0.0001146   0.0002133  -0.0003813
   52  -0.0189787  -0.0121757   0.0044225  -0.0010627  -0.0011468   0.0008236
   53   0.0185245   0.0117284  -0.0057173   0.0011403   0.0009382  -0.0003777
   54  -0.0095245  -0.0059584   0.0015225  -0.0004800  -0.0006718   0.0006744
   55  -0.0014326  -0.0010302  -0.0003972  -0.0004206  -0.0006936   0.0003632
   56  -0.0004063  -0.0002920   0.0012618   0.0006027   0.0011379  -0.0005457
   57  -0.0004729  -0.0003359  -0.0004572  -0.0000608  -0.0002322   0.0001351
   58  -0.0000597  -0.0000345  -0.0001023  -0.0000516  -0.0000842   0.0000330
   59   0.0000861   0.0000444   0.0001598   0.0000782   0.0001254  -0.0000520
   60  -0.0000813  -0.0000475  -0.0000143  -0.0000213  -0.0000373   0.0000167
   61   0.0008058   0.0004324   0.0009611  -0.0004634  -0.0003302  -0.0000236
   62   0.0036946   0.0027456  -0.0018936   0.0007082   0.0004663  -0.0001678
   63  -0.0001156  -0.0000673   0.0000701  -0.0002174  -0.0001862   0.0000371
   64  -0.0006135  -0.0004693  -0.0002120  -0.0000291  -0.0000650   0.0000095
   65   0.0009214   0.0007038   0.0002856   0.0000428   0.0000936  -0.0000139
   66  -0.0001020  -0.0000719  -0.0000685  -0.0000058  -0.0000116  -0.0000014
   67   0.0029007   0.0020000  -0.0002141   0.0003195   0.0005276  -0.0003452
   68  -0.0019159  -0.0016971   0.0005781  -0.0005603  -0.0005241   0.0001298
   69   0.0009907   0.0007316   0.0000607   0.0001363   0.0001638  -0.0001043
   70   0.0001454   0.0000145  -0.0000650  -0.0000013   0.0000085  -0.0000155
   71  -0.0002990  -0.0000860   0.0001281   0.0000007  -0.0000134   0.0000222
   72   0.0001597   0.0000893  -0.0000456   0.0000014   0.0000053  -0.0000051
   73  -0.0002951  -0.0001912   0.0002560  -0.0000061   0.0000293  -0.0000316
   74   0.0005209   0.0003465  -0.0004012   0.0000050  -0.0000514   0.0000530
   75  -0.0000526  -0.0000256   0.0000731  -0.0000048   0.0000035  -0.0000054
   76  -0.0007884  -0.0003294  -0.0001856   0.0000194  -0.0001358   0.0001899
   77  -0.0009611  -0.0003879  -0.0000166   0.0000830  -0.0000539   0.0001054
   78  -0.0011052  -0.0005969  -0.0000038   0.0000184  -0.0001079   0.0001568
   79   0.0000229   0.0000181  -0.0000487   0.0000002  -0.0000104   0.0000115
   80  -0.0000300  -0.0000222   0.0000578  -0.0000007   0.0000127  -0.0000149
   81   0.0000339   0.0000219  -0.0000098   0.0000006  -0.0000001   0.0000011
   82   0.0002237   0.0000759   0.0001805  -0.0000142   0.0000722  -0.0000863
   83   0.0006806   0.0003370  -0.0001301  -0.0000214   0.0000255  -0.0000669
   84   0.0008999   0.0004287   0.0001291  -0.0000315   0.0001192  -0.0001623
   85   0.0000180   0.0000130   0.0000033   0.0000063   0.0000086  -0.0000035
   86   0.0000330   0.0000200   0.0000032   0.0000132   0.0000165  -0.0000065
   87  -0.0000027  -0.0000029   0.0000014   0.0000033   0.0000034  -0.0000010
   88   0.0000027  -0.0000012  -0.0000014   0.0000025   0.0000030  -0.0000010
   89  -0.0000195  -0.0000107  -0.0000024  -0.0000020  -0.0000044   0.0000030
   90   0.0000048   0.0000024   0.0000006  -0.0000007  -0.0000000  -0.0000005
   91  -0.0001088  -0.0000598  -0.0000321  -0.0000476  -0.0000628   0.0000334
   92  -0.0000417  -0.0000236  -0.0000093  -0.0000276  -0.0000326   0.0000126
   93  -0.0000193  -0.0000121   0.0000043   0.0000067   0.0000052  -0.0000013
   94   0.0000056   0.0000041   0.0000020   0.0000013   0.0000022  -0.0000012
   95   0.0000152   0.0000078   0.0000010   0.0000021   0.0000040  -0.0000026
   96  -0.0000024  -0.0000020  -0.0000016  -0.0000006  -0.0000012   0.0000005
   97  -0.0000179  -0.0000118   0.0000032  -0.0000029  -0.0000036   0.0000010
   98   0.0000785   0.0000485   0.0000096  -0.0000029   0.0000092  -0.0000098
   99  -0.0000456  -0.0000256  -0.0000075  -0.0000005  -0.0000092   0.0000076
  100   0.0008352   0.0003270   0.0004378   0.0004953   0.0006380  -0.0003591
  101   0.0003515   0.0001378   0.0001322   0.0002013   0.0002615  -0.0001330
  102   0.0001017   0.0000692   0.0000000   0.0000302   0.0000252  -0.0000181
  103   0.0000002  -0.0000016  -0.0000011  -0.0000002   0.0000000  -0.0000000
  104  -0.0000010   0.0000006  -0.0000003  -0.0000003  -0.0000006   0.0000005
  105   0.0000016   0.0000002  -0.0000006  -0.0000001   0.0000000  -0.0000002
  106   0.0000001  -0.0000000  -0.0000001   0.0000001   0.0000001  -0.0000000
  107  -0.0000006  -0.0000002   0.0000002  -0.0000000  -0.0000000   0.0000000
  108  -0.0000008  -0.0000002   0.0000003  -0.0000001  -0.0000001   0.0000001
  109  -0.0000075  -0.0000038  -0.0000016  -0.0000006  -0.0000021   0.0000015
  110  -0.0000153  -0.0000098   0.0000023   0.0000028   0.0000009   0.0000006
  111  -0.0000011   0.0000004  -0.0000001  -0.0000016  -0.0000013   0.0000007
  112  -0.0002162  -0.0001206  -0.0000251  -0.0000221  -0.0000547   0.0000356
  113  -0.0001115  -0.0000549  -0.0000309  -0.0000166  -0.0000325   0.0000242
  114   0.0001192   0.0000641   0.0000274   0.0000231   0.0000414  -0.0000258
  115   0.0000060   0.0000030  -0.0000002   0.0000005   0.0000011  -0.0000008
  116   0.0000022   0.0000014   0.0000015   0.0000011   0.0000013  -0.0000008
  117  -0.0000014   0.0000003   0.0000004  -0.0000002  -0.0000004   0.0000002
  118   0.0000015   0.0000007  -0.0000002   0.0000002   0.0000003  -0.0000002
  119   0.0000010   0.0000008   0.0000002   0.0000000   0.0000002  -0.0000001
  120  -0.0000005  -0.0000003  -0.0000000  -0.0000000  -0.0000001   0.0000001
  121  -0.0000017  -0.0000009   0.0000002   0.0000000  -0.0000001   0.0000001
  122  -0.0000018  -0.0000011  -0.0000001   0.0000001  -0.0000001   0.0000001
  123   0.0000012   0.0000006  -0.0000001  -0.0000000   0.0000001  -0.0000001
  124  -0.0000180  -0.0000087  -0.0000040  -0.0000064  -0.0000090   0.0000046
  125  -0.0000248  -0.0000124  -0.0000062  -0.0000091  -0.0000132   0.0000069
  126   0.0000004   0.0000006  -0.0000001  -0.0000003  -0.0000004   0.0000003
  127   0.0000007   0.0000001  -0.0000002   0.0000001   0.0000001  -0.0000001
  128  -0.0000002  -0.0000001   0.0000001  -0.0000000  -0.0000000   0.0000000
  129   0.0000004   0.0000001  -0.0000002   0.0000001   0.0000001  -0.0000001
  130   0.0000004   0.0000001  -0.0000005   0.0000002   0.0000000  -0.0000000
  131  -0.0000005  -0.0000002   0.0000003  -0.0000001  -0.0000001   0.0000000
  132  -0.0000008  -0.0000001   0.0000005  -0.0000002  -0.0000001   0.0000001
  133  -0.0000094  -0.0000236   0.0000096   0.0000016   0.0000064  -0.0000044
  134  -0.0000501  -0.0000333  -0.0000061  -0.0000078  -0.0000196   0.0000121
  135  -0.0000135  -0.0000198  -0.0000028  -0.0000182  -0.0000093   0.0000020
  136   0.0000093   0.0000031   0.0000067   0.0000073   0.0000103  -0.0000057
  137  -0.0000083  -0.0000028  -0.0000028  -0.0000040  -0.0000058   0.0000028
  138  -0.0000008   0.0000003  -0.0000045  -0.0000032  -0.0000043   0.0000024
            7           8           9          10          11          12
    1   0.0007366   0.0001546   0.0001895  -0.0018093  -0.0008138   0.0003261
    2   0.0006195   0.0001262   0.0001428  -0.0017232  -0.0004486   0.0003200
    3  -0.0001823   0.0001558  -0.0000517   0.0003112  -0.0001997  -0.0003129
    4   0.0001066   0.0001627   0.0000173  -0.0009634  -0.0003443   0.0000460
    5   0.0000147   0.0003530  -0.0000179  -0.0009029  -0.0005055   0.0000037
    6   0.0000803  -0.0000909   0.0000246   0.0003204   0.0002378   0.0000950
    7  -0.0004120  -0.0001018  -0.0000481   0.0004118   0.0000751  -0.0000235
    8  -0.0001018  -0.0005363   0.0000426  -0.0003069   0.0001908   0.0001555
    9  -0.0000481   0.0000426  -0.0000309   0.0001312   0.0000169   0.0000061
   10   0.0004118  -0.0003069   0.0001312  -0.0079660  -0.0018381   0.0011203
   11   0.0000751   0.0001908   0.0000169  -0.0018381  -0.0015564  -0.0003255
   12  -0.0000235   0.0001555   0.0000061   0.0011203  -0.0003255  -0.0008533
   13   0.0001203   0.0014016  -0.0000855   0.0027961  -0.0007280  -0.0008951
   14   0.0001869   0.0005173  -0.0000061  -0.0008190   0.0003810   0.0003885
   15   0.0000924  -0.0002268   0.0000404  -0.0019488   0.0001049   0.0010512
   16  -0.0005575  -0.0014905  -0.0004390  -0.0051418  -0.0018807  -0.0004032
   17  -0.0017074  -0.0001738  -0.0001143   0.0256661   0.0071661  -0.0036252
   18   0.0002322  -0.0000970  -0.0000160  -0.0046960  -0.0013438   0.0007274
   19   0.0000306  -0.0000530   0.0000124  -0.0000528  -0.0000066   0.0000131
   20  -0.0000545   0.0000834  -0.0000218   0.0000881   0.0000142  -0.0000221
   21   0.0000129  -0.0000214   0.0000059  -0.0000186  -0.0000025   0.0000043
   22   0.0000078  -0.0000056   0.0000018  -0.0000526  -0.0000098   0.0000091
   23   0.0000032  -0.0000026   0.0000012  -0.0000351  -0.0000156   0.0000046
   24  -0.0000009   0.0000100  -0.0000018  -0.0000093  -0.0000110  -0.0000018
   25  -0.0000403  -0.0000270  -0.0000090   0.0002485   0.0000631  -0.0000397
   26  -0.0000231  -0.0000160  -0.0000068   0.0002267   0.0000766  -0.0000501
   27  -0.0000104  -0.0000057  -0.0000042  -0.0000109  -0.0000101  -0.0000052
   28   0.0000504   0.0000989   0.0000099  -0.0001356  -0.0001002  -0.0000228
   29   0.0000064   0.0000018   0.0000036  -0.0000854  -0.0000358   0.0000065
   30  -0.0000060   0.0000056  -0.0000053   0.0001367   0.0000479  -0.0000138
   31   0.0000304  -0.0002892   0.0000202  -0.0001696   0.0001853   0.0001293
   32   0.0000751  -0.0002606   0.0000226  -0.0002789   0.0001350   0.0001367
   33  -0.0000004   0.0000099   0.0000006   0.0000167   0.0000011  -0.0000047
   34  -0.0001859  -0.0000496  -0.0000303  -0.0001252   0.0000625   0.0000114
   35  -0.0001026  -0.0000430  -0.0000151   0.0001706   0.0000370  -0.0000012
   36  -0.0000055   0.0000118  -0.0000014  -0.0000111  -0.0000067  -0.0000244
   37   0.0000409   0.0000477   0.0000118  -0.0001673  -0.0000670   0.0000703
   38   0.0000690   0.0000674   0.0000146  -0.0000726  -0.0001245  -0.0000245
   39  -0.0000201  -0.0000191  -0.0000053   0.0001140   0.0000789  -0.0000379
   40  -0.0000235   0.0000525  -0.0000113   0.0000787   0.0000385  -0.0000200
   41   0.0000379  -0.0000603   0.0000174  -0.0001077  -0.0000651   0.0000178
   42  -0.0000120   0.0000138  -0.0000060   0.0000200   0.0000225  -0.0000004
   43   0.0000092  -0.0000042   0.0000018  -0.0000194   0.0000026   0.0000063
   44  -0.0000029   0.0000092  -0.0000005   0.0000094  -0.0000030  -0.0000051
   45   0.0000004  -0.0000007   0.0000009  -0.0000027  -0.0000013   0.0000001
   46  -0.0002427   0.0005076   0.0001899   0.0070751   0.0026370  -0.0008709
   47   0.0007798  -0.0002222   0.0000395  -0.0119681  -0.0052660   0.0010185
   48  -0.0001261   0.0000514   0.0000321   0.0023635   0.0010463  -0.0004881
   49   0.0001823  -0.0005260   0.0001034   0.0001998  -0.0008049  -0.0001576
   50  -0.0003326   0.0006794  -0.0002020  -0.0023560   0.0016038   0.0012057
   51   0.0001114  -0.0000968   0.0000890   0.0014262  -0.0005992  -0.0007275
   52  -0.0003207   0.0005666  -0.0001341   0.0016819   0.0012305   0.0002592
   53   0.0005095  -0.0008787   0.0001482  -0.0038503  -0.0015243   0.0004856
   54  -0.0001050   0.0001513  -0.0000792  -0.0000293   0.0005831   0.0005262
   55   0.0000979  -0.0001298   0.0000468   0.0012957  -0.0000733  -0.0002381
   56  -0.0001092   0.0002203  -0.0000790  -0.0018218   0.0000562   0.0003950
   57   0.0000216  -0.0000536  -0.0000028   0.0004535   0.0000575  -0.0000957
   58  -0.0000031   0.0000012   0.0000034   0.0001737   0.0000105  -0.0000231
   59   0.0000043  -0.0000020  -0.0000049  -0.0002399  -0.0000143   0.0000273
   60  -0.0000001   0.0000008   0.0000004   0.0000380   0.0000040  -0.0000025
   61  -0.0000431   0.0000018   0.0000241   0.0012982   0.0005880  -0.0000847
   62   0.0000594   0.0000183  -0.0000132  -0.0018981  -0.0009292  -0.0000876
   63  -0.0000020   0.0000103   0.0000083   0.0002893   0.0001733   0.0000017
   64  -0.0000023   0.0000040   0.0000009   0.0001319   0.0000220   0.0000150
   65   0.0000037  -0.0000056  -0.0000011  -0.0001946  -0.0000342  -0.0000257
   66  -0.0000014   0.0000009   0.0000008   0.0000599   0.0000081   0.0000035
   67   0.0000031   0.0000994   0.0000122  -0.0008436  -0.0003972  -0.0000356
   68   0.0000485  -0.0000837   0.0000731   0.0015691   0.0002567  -0.0002400
   69  -0.0000125   0.0000202   0.0000030  -0.0002742  -0.0000911  -0.0000014
   70   0.0000160  -0.0000246   0.0000071  -0.0000283  -0.0000192   0.0000014
   71  -0.0000222   0.0000373  -0.0000104   0.0000395   0.0000277  -0.0000020
   72   0.0000041  -0.0000088   0.0000023  -0.0000059  -0.0000055   0.0000011
   73  -0.0000054   0.0000089  -0.0000022   0.0000201   0.0000772   0.0000427
   74   0.0000082  -0.0000123   0.0000029  -0.0000407  -0.0001134  -0.0000593
   75  -0.0000019   0.0000033  -0.0000011  -0.0000004   0.0000252   0.0000162
   76  -0.0000149  -0.0000362  -0.0000369  -0.0000583   0.0001698   0.0000736
   77  -0.0000279   0.0000027  -0.0000365  -0.0001954   0.0000807   0.0001580
   78  -0.0000128  -0.0000225  -0.0000253  -0.0000854   0.0001247   0.0000890
   79   0.0000030  -0.0000047   0.0000010  -0.0000009  -0.0000196  -0.0000118
   80  -0.0000046   0.0000066  -0.0000017  -0.0000016   0.0000302   0.0000182
   81   0.0000012  -0.0000011   0.0000006   0.0000032  -0.0000081  -0.0000051
   82  -0.0000038   0.0000181   0.0000099   0.0000396  -0.0000354  -0.0000379
   83   0.0000189  -0.0000108   0.0000203   0.0000889  -0.0001004  -0.0000758
   84   0.0000112   0.0000205   0.0000273   0.0001150  -0.0001177  -0.0001007
   85  -0.0000025  -0.0000059   0.0000005   0.0000531   0.0000296   0.0000049
   86  -0.0000003  -0.0000037   0.0000000   0.0001467   0.0000925   0.0000243
   87  -0.0000029   0.0000021  -0.0000007   0.0000675   0.0000383   0.0000091
   88  -0.0000013   0.0000006  -0.0000007   0.0000407   0.0000252   0.0000063
   89  -0.0000022   0.0000082  -0.0000012  -0.0000348  -0.0000399  -0.0000221
   90   0.0000029  -0.0000019   0.0000004  -0.0000044   0.0000051   0.0000069
   91  -0.0000096   0.0000288  -0.0000040  -0.0003675  -0.0002929  -0.0001349
   92   0.0000097   0.0000074   0.0000025  -0.0002472  -0.0001388  -0.0000348
   93  -0.0000055   0.0000063  -0.0000010   0.0000778   0.0000437   0.0000079
   94   0.0000001  -0.0000032   0.0000004   0.0000101   0.0000145   0.0000075
   95   0.0000018  -0.0000055   0.0000006   0.0000135   0.0000229   0.0000130
   96  -0.0000002   0.0000018  -0.0000002  -0.0000095  -0.0000112  -0.0000066
   97   0.0000030   0.0000054   0.0000001  -0.0000008  -0.0000066   0.0000011
   98   0.0000127  -0.0000427   0.0000075   0.0001760   0.0001881   0.0001251
   99  -0.0000088   0.0000248  -0.0000041  -0.0001050  -0.0001169  -0.0000724
  100   0.0000634  -0.0002202   0.0000276   0.0021681   0.0023645   0.0010451
  101  -0.0000292  -0.0000443  -0.0000104   0.0011324   0.0009185   0.0003025
  102  -0.0000040  -0.0000050  -0.0000123   0.0000236   0.0000129   0.0000428
  103  -0.0000005   0.0000001  -0.0000001   0.0000071   0.0000013  -0.0000010
  104  -0.0000002   0.0000007  -0.0000001   0.0000107   0.0000040   0.0000016
  105   0.0000006  -0.0000000  -0.0000000  -0.0000052  -0.0000021   0.0000002
  106  -0.0000001   0.0000000  -0.0000000   0.0000010   0.0000005  -0.0000000
  107  -0.0000000   0.0000001  -0.0000000   0.0000004   0.0000004   0.0000000
  108  -0.0000000   0.0000000   0.0000000  -0.0000002  -0.0000000   0.0000002
  109  -0.0000020   0.0000045  -0.0000007  -0.0000040  -0.0000151  -0.0000119
  110  -0.0000033   0.0000084  -0.0000016  -0.0000003  -0.0000162  -0.0000155
  111  -0.0000000  -0.0000016   0.0000003  -0.0000008   0.0000005   0.0000012
  112  -0.0000363   0.0001083  -0.0000170  -0.0000021  -0.0002294  -0.0001814
  113  -0.0000190   0.0000498  -0.0000089  -0.0002176  -0.0002488  -0.0001683
  114   0.0000135  -0.0000457   0.0000072   0.0002512   0.0002594   0.0001418
  115   0.0000007  -0.0000023   0.0000003   0.0000019   0.0000067   0.0000055
  116   0.0000002  -0.0000016   0.0000003   0.0000014   0.0000064   0.0000043
  117  -0.0000003   0.0000002   0.0000001  -0.0000005  -0.0000004   0.0000002
  118   0.0000001  -0.0000004   0.0000001   0.0000006   0.0000010   0.0000006
  119   0.0000002  -0.0000007   0.0000001   0.0000003   0.0000016   0.0000014
  120  -0.0000001   0.0000002  -0.0000000  -0.0000002  -0.0000005  -0.0000004
  121  -0.0000002   0.0000005  -0.0000001  -0.0000009  -0.0000013  -0.0000011
  122  -0.0000003   0.0000007  -0.0000001  -0.0000019  -0.0000024  -0.0000018
  123   0.0000002  -0.0000003   0.0000001   0.0000012   0.0000012   0.0000008
  124  -0.0000007   0.0000031  -0.0000005  -0.0000509  -0.0000369  -0.0000128
  125  -0.0000005   0.0000052  -0.0000005  -0.0000707  -0.0000557  -0.0000201
  126   0.0000002   0.0000002   0.0000001  -0.0000025  -0.0000004  -0.0000004
  127   0.0000000   0.0000000  -0.0000000   0.0000002  -0.0000001  -0.0000002
  128   0.0000000   0.0000000  -0.0000000  -0.0000001  -0.0000001  -0.0000000
  129  -0.0000000  -0.0000000  -0.0000000   0.0000003   0.0000001  -0.0000001
  130  -0.0000002   0.0000003  -0.0000001   0.0000032   0.0000019  -0.0000002
  131   0.0000002   0.0000000  -0.0000000  -0.0000007   0.0000003   0.0000001
  132   0.0000001  -0.0000002   0.0000001  -0.0000028  -0.0000015   0.0000002
  133  -0.0000059   0.0000049  -0.0000042   0.0001381   0.0000525  -0.0000055
  134  -0.0000015   0.0000119  -0.0000023   0.0000155  -0.0000194   0.0000032
  135   0.0000073  -0.0000004  -0.0000008  -0.0000733  -0.0000076   0.0000311
  136   0.0000002  -0.0000012   0.0000002   0.0000850   0.0000608   0.0000180
  137   0.0000002   0.0000005  -0.0000002  -0.0000457  -0.0000331  -0.0000103
  138   0.0000003   0.0000005   0.0000000  -0.0000436  -0.0000306  -0.0000089
           13          14          15          16          17          18
    1  -0.0032689  -0.0010581  -0.0000416   0.0841551  -0.0039561   0.0079474
    2  -0.0013559  -0.0019727   0.0002934   0.0611257   0.0032300   0.0045434
    3   0.0000137   0.0007008   0.0007077  -0.0183298  -0.0019167  -0.0005401
    4  -0.0012126  -0.0006085   0.0000314   0.0103027  -0.0050268   0.0016308
    5  -0.0016009  -0.0004644   0.0001246   0.0102852  -0.0051850   0.0017281
    6   0.0008444   0.0002208  -0.0002391  -0.0043055   0.0023023  -0.0006446
    7   0.0001203   0.0001869   0.0000924  -0.0005575  -0.0017074   0.0002322
    8   0.0014016   0.0005173  -0.0002268  -0.0014905  -0.0001738  -0.0000970
    9  -0.0000855  -0.0000061   0.0000404  -0.0004390  -0.0001143  -0.0000160
   10   0.0027961  -0.0008190  -0.0019488  -0.0051418   0.0256661  -0.0046960
   11  -0.0007280   0.0003810   0.0001049  -0.0018807   0.0071661  -0.0013438
   12  -0.0008951   0.0003885   0.0010512  -0.0004032  -0.0036252   0.0007274
   13  -0.0799592  -0.0347154   0.0131805   0.0429302   0.0862735  -0.0106151
   14  -0.0347154  -0.0206602   0.0047582   0.0178081   0.0500863  -0.0063084
   15   0.0131805   0.0047582  -0.0062039  -0.0056929  -0.0127635   0.0023238
   16   0.0429302   0.0178081  -0.0056929  -0.5749734   0.3680468  -0.1068445
   17   0.0862735   0.0500863  -0.0127635   0.3680468  -0.8643672   0.1714373
   18  -0.0106151  -0.0063084   0.0023238  -0.1068445   0.1714373  -0.0468721
   19   0.0001288   0.0000493  -0.0000294   0.0001872  -0.0002973   0.0000636
   20  -0.0001924  -0.0000705   0.0000441  -0.0004491   0.0004264  -0.0001035
   21   0.0000446   0.0000170  -0.0000089   0.0001207  -0.0001040   0.0000259
   22  -0.0000662  -0.0000491  -0.0000041   0.0006763  -0.0001728   0.0000869
   23  -0.0000566  -0.0000324  -0.0000016   0.0005063  -0.0000963   0.0000653
   24   0.0000007   0.0000076  -0.0000056   0.0000364  -0.0001876   0.0000364
   25   0.0000356   0.0001239   0.0000520  -0.0018593   0.0012783  -0.0003353
   26   0.0000849   0.0001299   0.0000576  -0.0016746   0.0010179  -0.0002919
   27   0.0000603   0.0000417  -0.0000104   0.0000274  -0.0004126   0.0000629
   28  -0.0011413  -0.0007376   0.0000871   0.0004993   0.0029897  -0.0003184
   29   0.0000335  -0.0000248  -0.0000837  -0.0003115   0.0004196  -0.0000553
   30   0.0000176   0.0000082   0.0000194  -0.0001205  -0.0006306   0.0000958
   31   0.0010783   0.0006158   0.0000268  -0.0051029   0.0000114  -0.0006930
   32   0.0004789   0.0004037   0.0000571  -0.0047294   0.0017472  -0.0008709
   33   0.0001224   0.0000421  -0.0000408   0.0004478  -0.0006509   0.0001517
   34   0.0077199   0.0039080  -0.0009411  -0.0023049  -0.0046583   0.0003714
   35   0.0033871   0.0023903  -0.0003958  -0.0023838  -0.0017027  -0.0000407
   36   0.0000169  -0.0000226   0.0002174  -0.0000706   0.0001019  -0.0000298
   37   0.0024077   0.0010827  -0.0002702   0.0017267  -0.0007935   0.0003449
   38   0.0012477   0.0011101  -0.0001802   0.0024384  -0.0005951   0.0003782
   39  -0.0002807  -0.0000400   0.0004263  -0.0011196   0.0000035  -0.0000921
   40  -0.0003957  -0.0001747   0.0000218   0.0045756  -0.0028930   0.0013653
   41  -0.0000403  -0.0000860   0.0000909  -0.0030227   0.0054957  -0.0007977
   42   0.0002057   0.0001231  -0.0000974   0.0003512  -0.0015726   0.0007495
   43   0.0000338   0.0000062  -0.0000101   0.0000733  -0.0000287   0.0000101
   44  -0.0000354  -0.0000128   0.0000104  -0.0000109   0.0000422  -0.0000074
   45   0.0000079   0.0000035  -0.0000031   0.0000125   0.0000009  -0.0000008
   46   0.0102295   0.0045560  -0.0024824   0.2111516  -0.1088053   0.0331089
   47  -0.0265404  -0.0124966   0.0077588  -0.1019049   0.2893631  -0.0541745
   48  -0.0024837  -0.0006221   0.0005247   0.0537119  -0.0417389   0.0247960
   49   0.0040386   0.0030653   0.0016672   0.0236821  -0.0722444   0.0162804
   50   0.0003844  -0.0032122  -0.0055201  -0.0613936   0.0921985  -0.0177551
   51  -0.0025043   0.0005316   0.0028184   0.0154977  -0.0199541   0.0012386
   52   0.0142925   0.0072135  -0.0040582   0.1152191  -0.1694294   0.0357381
   53  -0.0300531  -0.0167742   0.0063981  -0.1708012   0.2496965  -0.0584569
   54   0.0017072  -0.0000100  -0.0013510   0.0418809  -0.0515426   0.0103526
   55  -0.0019010  -0.0004019   0.0010523   0.0597091  -0.0666552   0.0150791
   56  -0.0002349  -0.0010376  -0.0009425  -0.0677512   0.1115834  -0.0245550
   57  -0.0005345  -0.0001940   0.0000289   0.0119722  -0.0263630   0.0053685
   58   0.0000019   0.0000859   0.0001208   0.0082563  -0.0128006   0.0028173
   59  -0.0000077  -0.0001134  -0.0001685  -0.0119820   0.0184569  -0.0041744
   60  -0.0000636  -0.0000149   0.0000570   0.0048414  -0.0026540   0.0004687
   61   0.0032014   0.0014071  -0.0009314   0.0680026  -0.0933914   0.0217907
   62   0.0001878   0.0009048   0.0009321  -0.0953592   0.1414339  -0.0308828
   63   0.0008214   0.0001173  -0.0004896   0.0255328  -0.0282890   0.0069169
   64   0.0006784   0.0004856   0.0002191   0.0065784  -0.0090888   0.0021853
   65  -0.0009633  -0.0007027  -0.0003457  -0.0094680   0.0134464  -0.0029729
   66   0.0003462   0.0002258   0.0000747  -0.0000124  -0.0045587   0.0002524
   67  -0.0013061  -0.0003881   0.0002843  -0.0645202   0.0879564  -0.0204590
   68   0.0039068   0.0023174  -0.0001975   0.0884750  -0.1342852   0.0291189
   69  -0.0003603  -0.0000641   0.0002093  -0.0202918   0.0289950  -0.0065860
   70  -0.0001481  -0.0001055   0.0000918   0.0039919  -0.0057332   0.0012148
   71   0.0001090   0.0001044  -0.0001074  -0.0055661   0.0086467  -0.0018619
   72   0.0000926   0.0000388   0.0000083   0.0012998  -0.0018570   0.0004117
   73   0.0004583   0.0001424  -0.0002540   0.0066974  -0.0095505   0.0021820
   74  -0.0005846  -0.0001656   0.0003573  -0.0099086   0.0140658  -0.0031540
   75   0.0001899   0.0000645  -0.0000863   0.0018608  -0.0033032   0.0007269
   76  -0.0007984  -0.0007912   0.0000495   0.0014550  -0.0011655   0.0006342
   77  -0.0004412  -0.0005307  -0.0001694  -0.0018475   0.0022238  -0.0001944
   78  -0.0011053  -0.0008599   0.0000977  -0.0009806  -0.0012058   0.0004315
   79  -0.0000164   0.0000118   0.0000205  -0.0003247   0.0002283  -0.0000761
   80   0.0000319  -0.0000206  -0.0000425   0.0003301  -0.0004363   0.0001054
   81   0.0000204   0.0000255   0.0000114   0.0000463   0.0001679  -0.0000356
   82   0.0005277   0.0003801  -0.0001102  -0.0006535   0.0010043  -0.0003439
   83   0.0000484   0.0002450   0.0002122   0.0014079  -0.0013274   0.0001608
   84   0.0008991   0.0007668  -0.0000226   0.0010783   0.0010519  -0.0004026
   85   0.0000358   0.0000253   0.0000006   0.0000295  -0.0000554   0.0000131
   86   0.0001755   0.0000859  -0.0000375   0.0000317  -0.0003691   0.0000611
   87  -0.0000083   0.0000003   0.0000023   0.0000672  -0.0001633   0.0000322
   88   0.0000233   0.0000061  -0.0000108  -0.0000207  -0.0001167   0.0000178
   89  -0.0000558  -0.0000011   0.0000043   0.0000125   0.0000398  -0.0000080
   90   0.0000358   0.0000064  -0.0000098   0.0000012  -0.0000059  -0.0000003
   91  -0.0003405  -0.0000932   0.0000796  -0.0004121   0.0009587  -0.0001920
   92  -0.0001611  -0.0000861   0.0000326  -0.0001799   0.0007058  -0.0001314
   93  -0.0000330  -0.0000088  -0.0000002   0.0001401  -0.0002046   0.0000429
   94   0.0000074  -0.0000017   0.0000008   0.0000191   0.0000249  -0.0000024
   95   0.0000392   0.0000033  -0.0000067  -0.0000429  -0.0000044  -0.0000018
   96  -0.0000129  -0.0000017   0.0000029  -0.0000249  -0.0000017  -0.0000013
   97  -0.0000249  -0.0000141  -0.0000057   0.0001254  -0.0000736   0.0000186
   98   0.0001296  -0.0000607   0.0000168  -0.0000856   0.0001782  -0.0000280
   99  -0.0001085   0.0000174   0.0000060   0.0000189  -0.0000526   0.0000082
  100   0.0006163  -0.0010898  -0.0004395   0.0052474  -0.0048692   0.0012299
  101   0.0002027  -0.0002477  -0.0000970   0.0018126  -0.0035719   0.0007580
  102   0.0001839   0.0000644  -0.0000096  -0.0002588  -0.0004539   0.0000442
  103   0.0000046  -0.0000003  -0.0000004  -0.0000255  -0.0000313   0.0000047
  104   0.0000063   0.0000077  -0.0000004   0.0000127  -0.0000231   0.0000040
  105   0.0000102   0.0000014  -0.0000045  -0.0000240  -0.0000058  -0.0000010
  106   0.0000000  -0.0000001   0.0000001  -0.0000016  -0.0000047   0.0000007
  107  -0.0000004   0.0000002  -0.0000000   0.0000048  -0.0000010   0.0000004
  108  -0.0000008   0.0000001   0.0000000   0.0000098   0.0000045  -0.0000003
  109  -0.0000335  -0.0000001   0.0000099   0.0000036  -0.0000176   0.0000040
  110  -0.0000530  -0.0000078   0.0000046   0.0001263  -0.0001036   0.0000253
  111   0.0000026   0.0000024   0.0000015  -0.0000000   0.0000428  -0.0000071
  112  -0.0005778  -0.0000343   0.0001246   0.0004858  -0.0008841   0.0001874
  113  -0.0001757   0.0001018   0.0000141  -0.0001064   0.0000179  -0.0000229
  114   0.0002108  -0.0000348  -0.0000220   0.0001230  -0.0001325   0.0000360
  115   0.0000229   0.0000022  -0.0000061  -0.0000299   0.0000045  -0.0000026
  116   0.0000015  -0.0000037  -0.0000006   0.0000213   0.0000145  -0.0000009
  117  -0.0000077  -0.0000013   0.0000025   0.0000128   0.0000196  -0.0000022
  118   0.0000034   0.0000004  -0.0000005  -0.0000124  -0.0000022  -0.0000003
  119   0.0000047   0.0000008  -0.0000008   0.0000003   0.0000052  -0.0000009
  120  -0.0000014  -0.0000002   0.0000002   0.0000017  -0.0000010   0.0000003
  121  -0.0000017   0.0000010  -0.0000004   0.0000089  -0.0000036   0.0000010
  122  -0.0000021   0.0000013  -0.0000003   0.0000003  -0.0000082   0.0000013
  123   0.0000015  -0.0000006   0.0000002  -0.0000051   0.0000011  -0.0000004
  124  -0.0000114   0.0000059   0.0000024  -0.0000317   0.0000838  -0.0000159
  125  -0.0000200   0.0000066   0.0000047  -0.0000556   0.0000909  -0.0000183
  126   0.0000067   0.0000029  -0.0000015   0.0000061  -0.0000046   0.0000007
  127   0.0000001  -0.0000006   0.0000001  -0.0000091  -0.0000050   0.0000005
  128   0.0000000   0.0000002  -0.0000001   0.0000024  -0.0000005   0.0000002
  129   0.0000002  -0.0000001   0.0000001  -0.0000059  -0.0000020   0.0000001
  130  -0.0000005  -0.0000003   0.0000002  -0.0000096  -0.0000158   0.0000023
  131   0.0000026   0.0000012  -0.0000009   0.0000061   0.0000014  -0.0000000
  132  -0.0000007  -0.0000000  -0.0000001   0.0000119   0.0000145  -0.0000019
  133  -0.0001456  -0.0000474   0.0000123   0.0000800   0.0001168  -0.0000074
  134  -0.0001376  -0.0000339   0.0000162   0.0000164   0.0003595  -0.0000581
  135   0.0000330  -0.0000076  -0.0000179  -0.0000921   0.0002557  -0.0000479
  136  -0.0000428  -0.0000383   0.0000097   0.0001209  -0.0001663   0.0000385
  137   0.0000182   0.0000193  -0.0000035  -0.0000652   0.0000909  -0.0000190
  138   0.0000252   0.0000200  -0.0000081  -0.0000893   0.0000736  -0.0000200
           19          20          21          22          23          24
    1  -0.0000723   0.0001507  -0.0000356  -0.0001870  -0.0001505   0.0000590
    2  -0.0000495   0.0001094  -0.0000253  -0.0001538  -0.0001181   0.0000596
    3   0.0000208  -0.0000474   0.0000106   0.0000437   0.0000279  -0.0000319
    4   0.0000055  -0.0000097   0.0000022  -0.0000049   0.0000231  -0.0000442
    5   0.0000146  -0.0000248   0.0000061   0.0000177   0.0000202  -0.0000501
    6  -0.0000049   0.0000116  -0.0000023  -0.0000068  -0.0000027   0.0000408
    7   0.0000306  -0.0000545   0.0000129   0.0000078   0.0000032  -0.0000009
    8  -0.0000530   0.0000834  -0.0000214  -0.0000056  -0.0000026   0.0000100
    9   0.0000124  -0.0000218   0.0000059   0.0000018   0.0000012  -0.0000018
   10  -0.0000528   0.0000881  -0.0000186  -0.0000526  -0.0000351  -0.0000093
   11  -0.0000066   0.0000142  -0.0000025  -0.0000098  -0.0000156  -0.0000110
   12   0.0000131  -0.0000221   0.0000043   0.0000091   0.0000046  -0.0000018
   13   0.0001288  -0.0001924   0.0000446  -0.0000662  -0.0000566   0.0000007
   14   0.0000493  -0.0000705   0.0000170  -0.0000491  -0.0000324   0.0000076
   15  -0.0000294   0.0000441  -0.0000089  -0.0000041  -0.0000016  -0.0000056
   16   0.0001872  -0.0004491   0.0001207   0.0006763   0.0005063   0.0000364
   17  -0.0002973   0.0004264  -0.0001040  -0.0001728  -0.0000963  -0.0001876
   18   0.0000636  -0.0001035   0.0000259   0.0000869   0.0000653   0.0000364
   19  -0.0000222   0.0000359  -0.0000089  -0.0000017  -0.0000014   0.0000009
   20   0.0000359  -0.0000625   0.0000154   0.0000032   0.0000028  -0.0000014
   21  -0.0000089   0.0000154  -0.0000039  -0.0000009  -0.0000008   0.0000004
   22  -0.0000017   0.0000032  -0.0000009  -0.0000362  -0.0000309   0.0000056
   23  -0.0000014   0.0000028  -0.0000008  -0.0000309  -0.0000311   0.0000042
   24   0.0000009  -0.0000014   0.0000004   0.0000056   0.0000042  -0.0000162
   25   0.0000008  -0.0000028   0.0000008   0.0000130   0.0000056   0.0000037
   26   0.0000006  -0.0000035   0.0000008   0.0000094   0.0000069   0.0000060
   27   0.0000008  -0.0000012   0.0000002  -0.0000037  -0.0000012  -0.0000049
   28   0.0000061  -0.0000071   0.0000009  -0.0000154  -0.0000153   0.0000018
   29  -0.0000019   0.0000032  -0.0000010  -0.0000039  -0.0000036  -0.0000019
   30   0.0000025  -0.0000049   0.0000014   0.0000010  -0.0000002   0.0000022
   31  -0.0000377   0.0000629  -0.0000148   0.0000319   0.0000258  -0.0000052
   32  -0.0000381   0.0000627  -0.0000145   0.0000259   0.0000172  -0.0000072
   33   0.0000016  -0.0000022   0.0000004  -0.0000008  -0.0000004   0.0000008
   34   0.0000247  -0.0000429   0.0000103   0.0000037   0.0000016  -0.0000041
   35   0.0000122  -0.0000208   0.0000051   0.0000040   0.0000018  -0.0000000
   36   0.0000017  -0.0000026   0.0000006  -0.0000003  -0.0000004  -0.0000004
   37  -0.0000010   0.0000027  -0.0000009  -0.0000027  -0.0000018  -0.0000019
   38  -0.0000046   0.0000099  -0.0000028  -0.0000007  -0.0000003  -0.0000018
   39   0.0000010  -0.0000025   0.0000007   0.0000015   0.0000009   0.0000014
   40   0.0000131  -0.0000210   0.0000054   0.0000015  -0.0000045  -0.0000015
   41  -0.0000168   0.0000281  -0.0000068  -0.0000040   0.0000032   0.0000023
   42   0.0000046  -0.0000078   0.0000020   0.0000018  -0.0000005  -0.0000006
   43  -0.0000013   0.0000023  -0.0000006  -0.0000000  -0.0000002  -0.0000002
   44   0.0000014  -0.0000022   0.0000006   0.0000003   0.0000003  -0.0000001
   45  -0.0000002   0.0000002  -0.0000001   0.0000001   0.0000001   0.0000000
   46  -0.0001067   0.0003284  -0.0000978  -0.0001611  -0.0001188  -0.0000182
   47   0.0002843  -0.0003858   0.0000811   0.0001094   0.0000429   0.0001623
   48  -0.0000591   0.0001007  -0.0000267  -0.0000915  -0.0000707  -0.0000365
   49  -0.0001744   0.0002305  -0.0000535  -0.0000852  -0.0000489  -0.0000418
   50   0.0002036  -0.0003613   0.0000962   0.0000706   0.0000354   0.0000012
   51  -0.0000024   0.0001005  -0.0000340   0.0000145   0.0000080   0.0000349
   52   0.0001324  -0.0002484   0.0000691  -0.0000834  -0.0000760   0.0000248
   53  -0.0002402   0.0003639  -0.0000836   0.0001612   0.0001599  -0.0000298
   54   0.0000098  -0.0000915   0.0000333  -0.0000186  -0.0000046   0.0000044
   55  -0.0000643   0.0001098  -0.0000271   0.0000173   0.0000143   0.0000013
   56   0.0000936  -0.0001622   0.0000440   0.0000207   0.0000212   0.0000366
   57  -0.0000274   0.0000312  -0.0000055  -0.0000011  -0.0000002  -0.0000094
   58  -0.0000030   0.0000057  -0.0000018  -0.0000065  -0.0000038  -0.0000010
   59   0.0000043  -0.0000082   0.0000026   0.0000096   0.0000057   0.0000015
   60  -0.0000010   0.0000018  -0.0000007  -0.0000024  -0.0000011  -0.0000006
   61  -0.0000254   0.0000344  -0.0000116  -0.0000793  -0.0000538  -0.0000250
   62   0.0000308  -0.0000589   0.0000114   0.0000226   0.0000021  -0.0000046
   63  -0.0000042   0.0000146  -0.0000038  -0.0000210  -0.0000178  -0.0000014
   64  -0.0000008   0.0000013  -0.0000004  -0.0000085  -0.0000083  -0.0000027
   65   0.0000011  -0.0000019   0.0000006   0.0000122   0.0000120   0.0000036
   66  -0.0000001   0.0000005  -0.0000001  -0.0000019  -0.0000022  -0.0000006
   67   0.0000719  -0.0000293   0.0000039   0.0000507   0.0000234   0.0000238
   68  -0.0000184   0.0000944  -0.0000276  -0.0000365  -0.0000347   0.0000056
   69   0.0000074  -0.0000181   0.0000017  -0.0000130  -0.0000097  -0.0000121
   70  -0.0000066   0.0000108  -0.0000028  -0.0000008   0.0000001   0.0000011
   71   0.0000095  -0.0000160   0.0000042   0.0000006  -0.0000005  -0.0000016
   72  -0.0000019   0.0000036  -0.0000009   0.0000004   0.0000004   0.0000005
   73   0.0000036  -0.0000061   0.0000015  -0.0000042  -0.0000031   0.0000013
   74  -0.0000053   0.0000088  -0.0000022   0.0000060   0.0000044  -0.0000021
   75   0.0000012  -0.0000022   0.0000006  -0.0000013  -0.0000010   0.0000003
   76  -0.0000457  -0.0000137   0.0000073  -0.0000128   0.0000045  -0.0000222
   77  -0.0000225  -0.0000351   0.0000114  -0.0000176  -0.0000047  -0.0000105
   78  -0.0000262  -0.0000117   0.0000056  -0.0000028   0.0000076  -0.0000132
   79  -0.0000017   0.0000025  -0.0000006  -0.0000001   0.0000001  -0.0000004
   80   0.0000023  -0.0000038   0.0000009   0.0000000  -0.0000002   0.0000005
   81  -0.0000003   0.0000009  -0.0000002  -0.0000000  -0.0000001  -0.0000000
   82   0.0000158   0.0000000  -0.0000014  -0.0000012  -0.0000052   0.0000074
   83   0.0000071   0.0000188  -0.0000064   0.0000079   0.0000008   0.0000054
   84   0.0000266   0.0000134  -0.0000062   0.0000049  -0.0000055   0.0000142
   85  -0.0000007   0.0000010  -0.0000003  -0.0000005  -0.0000003   0.0000003
   86  -0.0000010   0.0000014  -0.0000004  -0.0000003  -0.0000002   0.0000004
   87   0.0000006  -0.0000010   0.0000003   0.0000001   0.0000001   0.0000000
   88   0.0000003  -0.0000006   0.0000002   0.0000003   0.0000001  -0.0000001
   89   0.0000009  -0.0000016   0.0000004   0.0000003   0.0000001  -0.0000002
   90  -0.0000005   0.0000008  -0.0000002  -0.0000000   0.0000000   0.0000000
   91   0.0000045  -0.0000074   0.0000018   0.0000001  -0.0000003  -0.0000015
   92   0.0000003   0.0000001  -0.0000001  -0.0000001  -0.0000002  -0.0000009
   93   0.0000011  -0.0000020   0.0000006   0.0000003   0.0000002   0.0000000
   94  -0.0000003   0.0000004  -0.0000001  -0.0000001  -0.0000000   0.0000001
   95  -0.0000006   0.0000009  -0.0000002   0.0000000   0.0000000   0.0000001
   96   0.0000002  -0.0000003   0.0000001   0.0000000   0.0000000  -0.0000000
   97  -0.0000000   0.0000002  -0.0000000  -0.0000002  -0.0000001   0.0000000
   98  -0.0000044   0.0000072  -0.0000018  -0.0000013  -0.0000003   0.0000006
   99   0.0000027  -0.0000044   0.0000011   0.0000005   0.0000001  -0.0000004
  100  -0.0000212   0.0000392  -0.0000101   0.0000074   0.0000052   0.0000138
  101   0.0000017  -0.0000025   0.0000003   0.0000047   0.0000041   0.0000055
  102   0.0000002  -0.0000007   0.0000002  -0.0000005   0.0000005   0.0000004
  103   0.0000001  -0.0000001   0.0000000   0.0000000  -0.0000000  -0.0000000
  104   0.0000000  -0.0000000   0.0000000  -0.0000001  -0.0000000  -0.0000000
  105  -0.0000000   0.0000001  -0.0000000   0.0000001   0.0000000  -0.0000000
  106   0.0000000  -0.0000000   0.0000000   0.0000000   0.0000000   0.0000000
  107   0.0000000  -0.0000000   0.0000000  -0.0000000   0.0000000  -0.0000000
  108  -0.0000000   0.0000000  -0.0000000  -0.0000000  -0.0000000  -0.0000000
  109   0.0000005  -0.0000009   0.0000002  -0.0000000  -0.0000000  -0.0000001
  110   0.0000010  -0.0000016   0.0000004   0.0000001   0.0000001   0.0000000
  111  -0.0000002   0.0000002  -0.0000001  -0.0000001  -0.0000001  -0.0000000
  112   0.0000120  -0.0000206   0.0000053  -0.0000009  -0.0000002  -0.0000012
  113   0.0000055  -0.0000097   0.0000024   0.0000012   0.0000001  -0.0000012
  114  -0.0000048   0.0000082  -0.0000021   0.0000000   0.0000003   0.0000011
  115  -0.0000002   0.0000004  -0.0000001   0.0000000   0.0000000   0.0000000
  116  -0.0000001   0.0000002  -0.0000001  -0.0000000   0.0000000   0.0000000
  117  -0.0000000   0.0000000  -0.0000000  -0.0000001  -0.0000000   0.0000000
  118  -0.0000000   0.0000001  -0.0000000  -0.0000000   0.0000000   0.0000000
  119  -0.0000001   0.0000001  -0.0000000  -0.0000000  -0.0000000   0.0000000
  120   0.0000000  -0.0000000   0.0000000   0.0000000   0.0000000  -0.0000000
  121   0.0000001  -0.0000001   0.0000000   0.0000000   0.0000000  -0.0000000
  122   0.0000001  -0.0000001   0.0000000   0.0000000   0.0000000  -0.0000000
  123  -0.0000000   0.0000001  -0.0000000  -0.0000000  -0.0000000   0.0000000
  124   0.0000003  -0.0000006   0.0000001  -0.0000002  -0.0000001  -0.0000001
  125   0.0000005  -0.0000008   0.0000002  -0.0000003  -0.0000000  -0.0000002
  126  -0.0000000   0.0000001  -0.0000000  -0.0000000   0.0000000   0.0000000
  127   0.0000000  -0.0000000   0.0000000   0.0000000   0.0000000   0.0000000
  128  -0.0000000   0.0000000  -0.0000000   0.0000000   0.0000000  -0.0000000
  129   0.0000000  -0.0000000   0.0000000   0.0000000   0.0000000   0.0000000
  130   0.0000001  -0.0000001   0.0000000   0.0000000   0.0000000  -0.0000000
  131  -0.0000000   0.0000000  -0.0000000  -0.0000000  -0.0000000  -0.0000000
  132  -0.0000000   0.0000001  -0.0000000  -0.0000000  -0.0000000   0.0000000
  133   0.0000016  -0.0000027   0.0000005   0.0000010   0.0000012  -0.0000006
  134   0.0000015  -0.0000024   0.0000004  -0.0000006  -0.0000005  -0.0000007
  135  -0.0000006   0.0000009  -0.0000002  -0.0000010  -0.0000005  -0.0000004
  136   0.0000003  -0.0000004   0.0000001   0.0000005   0.0000003   0.0000000
  137  -0.0000001   0.0000002  -0.0000001  -0.0000002  -0.0000002  -0.0000000
  138  -0.0000002   0.0000003  -0.0000001  -0.0000003  -0.0000001  -0.0000000
           25          26          27          28          29          30
    1   0.0002026   0.0001934   0.0000841   0.0016816   0.0008795  -0.0000460
    2   0.0003049   0.0002815   0.0000908   0.0009984   0.0009851  -0.0001461
    3  -0.0001944  -0.0001486  -0.0000240  -0.0002907  -0.0002066   0.0003790
    4   0.0003827   0.0003582  -0.0000360  -0.0001810  -0.0000409   0.0000941
    5   0.0001849   0.0002003  -0.0000096  -0.0001423  -0.0000718   0.0000634
    6   0.0000847   0.0000847   0.0000418   0.0000571   0.0000740  -0.0000516
    7  -0.0000403  -0.0000231  -0.0000104   0.0000504   0.0000064  -0.0000060
    8  -0.0000270  -0.0000160  -0.0000057   0.0000989   0.0000018   0.0000056
    9  -0.0000090  -0.0000068  -0.0000042   0.0000099   0.0000036  -0.0000053
   10   0.0002485   0.0002267  -0.0000109  -0.0001356  -0.0000854   0.0001367
   11   0.0000631   0.0000766  -0.0000101  -0.0001002  -0.0000358   0.0000479
   12  -0.0000397  -0.0000501  -0.0000052  -0.0000228   0.0000065  -0.0000138
   13   0.0000356   0.0000849   0.0000603  -0.0011413   0.0000335   0.0000176
   14   0.0001239   0.0001299   0.0000417  -0.0007376  -0.0000248   0.0000082
   15   0.0000520   0.0000576  -0.0000104   0.0000871  -0.0000837   0.0000194
   16  -0.0018593  -0.0016746   0.0000274   0.0004993  -0.0003115  -0.0001205
   17   0.0012783   0.0010179  -0.0004126   0.0029897   0.0004196  -0.0006306
   18  -0.0003353  -0.0002919   0.0000629  -0.0003184  -0.0000553   0.0000958
   19   0.0000008   0.0000006   0.0000008   0.0000061  -0.0000019   0.0000025
   20  -0.0000028  -0.0000035  -0.0000012  -0.0000071   0.0000032  -0.0000049
   21   0.0000008   0.0000008   0.0000002   0.0000009  -0.0000010   0.0000014
   22   0.0000130   0.0000094  -0.0000037  -0.0000154  -0.0000039   0.0000010
   23   0.0000056   0.0000069  -0.0000012  -0.0000153  -0.0000036  -0.0000002
   24   0.0000037   0.0000060  -0.0000049   0.0000018  -0.0000019   0.0000022
   25  -0.0003270  -0.0003067   0.0000282   0.0000428   0.0000030  -0.0000103
[...]
    2      C       0.5812782769    -3.4202595736     0.3037130019
    3      C      -0.6798835222    -2.6300843086     0.6584497979
    4      C      -0.8070002403    -1.3615537125    -0.2014895251
    5      C       0.4605735174    -0.4961348597    -0.0823017344
    6      C       1.7351149063    -1.2855888380    -0.4437268314
    7      H      -1.5621663381    -3.2494510580     0.5249474621
    8      H       0.4949270121    -3.7997029482    -0.7136337428
    9      H       0.6686764995    -4.2891558075     0.9503872134
   10      H       1.9929258156    -2.2830014212     1.4592680830
   11      H       2.7148723860    -3.1299456468     0.1173418278
   12      H       0.3711523294     0.3698739890    -0.7314769448
   13      H       0.5475759032    -0.1141153861     0.9322261761
   14      H       1.6270806291    -1.6095821835    -1.4780250548
   15      H      -0.6477973705    -2.3582097479     1.7118065997
   16      C       2.9785910259    -0.4298886756    -0.3742776558
   17      C       3.7607110311    -0.1586826461    -1.5611477992
   18      C       3.4359814368     0.1546189771     0.8638980293
   19      C       4.8787137734     0.6066038222    -1.5295262478
   20      H       3.4359784722    -0.5833721885    -2.4952149428
   21      C       4.5486789533     0.9240233934     0.9312012925
   22      H       2.8738861442    -0.0273608424     1.7624911223
   23      C       5.3284801698     1.1863129958    -0.2751962120
   24      H       5.4442998474     0.7942924444    -2.4246458905
   25      H       4.8852613078     1.3563466285     1.8526577674
   26      C       6.5130542806     2.0009811422    -0.2135112220
   27      H       7.0460529208     2.1559417013    -1.1535300944
   28      O       6.9221030665     2.5015146927     0.8115043308
   29      C      -3.4104135224     0.6895025030     1.6788228776
   30      C      -4.4122688319     0.8951638777     0.6931908721
   31      C      -2.2867725067    -0.0152046708     1.3963321414
   32      C      -5.5989373718     1.6273668272     0.9564370326
   33      C      -4.2123381024     0.3494183514    -0.5877869790
   34      C      -2.0692793611    -0.5741856674     0.1035526588
   35      C      -6.5346742510     1.8025982143    -0.0130090222
   36      H      -5.7472657231     2.0432252626     1.9381691890
   37      C      -5.2072139224     0.5484720506    -1.5809511840
   38      C      -3.0227863840    -0.3833531040    -0.8489259148
   39      C      -6.3347170822     1.2538112224    -1.3024342116
   40      H      -7.4318700537     2.3588509702     0.1934426333
   41      H      -5.0551575575     0.1312153068    -2.5614853507
   42      H      -2.8856430471    -0.7944505440    -1.8350421816
   43      H      -7.0828199152     1.3993443271    -2.0616556859
   44      H      -3.5550978231     1.1036693789     2.6619105651
   45      H      -0.8786737287    -1.6841171323    -1.2388427127
   46      H      -1.5471734252    -0.1535259218     2.1647816790
 ----------------------------------------------------------------
 Nuclear Repulsion Energy =  1808.7605775189 hartrees
 There are       84 alpha and       84 beta electrons
 Requested basis set is 6-31G(d,p)
 There are 162 shells and 470 basis functions

Total QAlloc Memory Limit  20000 MB
Mega-Array Size      4888 MB
MEM_STATIC part      5000 MB
 A cutoff of  1.0D-12 yielded   7185 shell pairs
 There are     61273 function pairs
 Smallest overlap matrix eigenvalue = 2.65E-04

  Scale SEOQF with 1.000000e-02/1.000000e-01/1.000000e-01

 Standard Electronic Orientation quadrupole field applied
 Nucleus-field energy     =     0.0000000205 hartrees
 Guess MOs from SCF MO coefficient file
Reading MOs from coefficient file
Reading MOs from coefficient file
 A restricted Hartree-Fock SCF calculation will be
 performed using Pulay DIIS extrapolation
 SCF converges when DIIS error is below 1.0E-10
 ---------------------------------------
  Cycle       Energy         DIIS Error
 ---------------------------------------
    1    -958.7027759548      1.75E-11
    2    -958.7027759548      2.18E-11 Convergence criterion met
 ---------------------------------------
 SCF time:  CPU 97.42 s  wall 97.50 s
 SCF   energy in the final basis set = -958.7027759548
 Total energy in the final basis set = -958.7027759548
 Direct RCIS calculation will be performed
 Triplet excitation energies requested
 CIS energy converged when residual is below 10e-10
 ---------------------------------------------------
 Iter    Rts Conv    Rts Left    Ttl Dev     Max Dev
 ---------------------------------------------------
   1         0           2      0.000459    0.000304
   2         0           2      0.000825    0.000506
   3         0           2      0.000359    0.000230
   4         0           2      0.000194    0.000123
   5         0           2      0.000101    0.000072
   6         0           2      0.000034    0.000025
   7         0           2      0.000017    0.000014
   8         0           2      0.000007    0.000006
   9         0           2      0.000004    0.000003
  10         0           2      0.000002    0.000001
  11         0           2      0.000001    0.000001
  12         0           2      0.000000    0.000000
  13         0           2      0.000000    0.000000
  14         0           2      0.000000    0.000000
  15         0           2      0.000000    0.000000
  16         0           2      0.000000    0.000000
  17         0           2      0.000000    0.000000
  18         0           2      0.000000    0.000000
  19         0           2      0.000000    0.000000
  20         1           1      0.000000    0.000000
  21         1           1      0.000000    0.000000
  22         1           1      0.000000    0.000000
  23         2           0      0.000000    0.000000    Roots Converged
 ---------------------------------------------------
 
 
 ---------------------------------------------------
               CIS Excitation Energies              
 ---------------------------------------------------

 Excited state   1: excitation energy (eV) =    2.5554
    Total energy for state   1:   -958.608867032942
    Multiplicity: Triplet 
    Trans. Mom.:  0.0000 X   0.0000 Y   0.0000 Z
    Strength   :  0.0000
    D( 81) --> V(  4) amplitude = -0.2878
    D( 82) --> V(  1) amplitude = -0.8188
    D( 83) --> V(  1) amplitude =  0.3527

 Excited state   2: excitation energy (eV) =    2.7854
    Total energy for state   2:   -958.600415777765
    Multiplicity: Triplet 
    Trans. Mom.:  0.0000 X   0.0000 Y   0.0000 Z
    Strength   :  0.0000
    D( 80) --> V(  5) amplitude = -0.3256
    D( 83) --> V(  3) amplitude =  0.3450
    D( 84) --> V(  2) amplitude = -0.7991
 
 ---------------------------------------------------
  Timing summary (seconds)
  CPU time       1913.01s
  System time       0.00s
  Wall time      1917.24s


 Entering the ER Localization Code for CIS excited states. 

NOTE: THIS HAS BEEN ONLY PARTIALLY TESTED FOR THE CASE THAT WE HAVE UNRESTRICTED ORBITALS.
INITIAL CENTER1 LOCATIONS: state 0  Occ x  8.496 y  1.194 z -0.445 Virt x  8.436 y  1.152 z -0.449
INITIAL CENTER1 LOCATIONS: state 1  Occ x -8.137 y  1.161 z  0.071 Virt x -8.122 y  1.166 z  0.107
INITIAL CENTER2 LOCATIONS: state 0  Occ x 79.561 y  6.335 z  3.012 Virt x 79.116 y  6.314 z  3.925
INITIAL CENTER2 LOCATIONS: state 1  Occ x 75.973 y  5.498 z  5.767 Virt x 76.611 y  5.557 z  5.895
INITIAL STANDARD DEVIATIONS: state 0  Occ x  2.718 y  2.216 z  1.678 Virt x  2.818 y  2.233 z  1.930
INITIAL STANDARD DEVIATIONS: state 1  Occ x  3.124 y  2.037 z  2.400 Virt x  3.262 y  2.049 z  2.426
INITIAL : state 0 sum of square of distances to other adiabatic states Occ 276.911127 Virt 274.502885
INITIAL : state 1 sum of square of distances to other adiabatic states Occ 276.911127 Virt 274.502885



Calling Random Orthogonal Matrix...
RandomSeed = 25
location random matrix in checkantisymmetry: max_diff = 0.000000e+00
location random matrix in checkunitary: max_diff = 0.000000e+00
 initially ruedvalue =    1.02164786561513     
showmatrix initial R-Matrix(0,0) =   0.5517911288
showmatrix initial R-Matrix(1,0) =   0.0004952354
showmatrix initial R-Matrix(0,1) =  -0.0006240140
showmatrix initial R-Matrix(1,1) =   0.4698567368
JacSwp  rnd     1 max_diff -9.999000e+03 ruedval     1.0216511108
In RUED_JACOBI SWEEPS for DIABATIC STATES, ending in round     1  because max_diff = 1.897354e-19
showmatrix final R-Matrix(0,0) =   0.5517929526
showmatrix final R-Matrix(1,0) =  -0.0000049978
showmatrix final R-Matrix(0,1) =  -0.0000049978
showmatrix final R-Matrix(1,1) =   0.4698581583
showmatrix final adiabatic -> diabatic RotMatrix(0,0) =   0.9999730814
showmatrix final adiabatic -> diabatic RotMatrix(1,0) =   0.0073373301
showmatrix final adiabatic -> diabatic RotMatrix(0,1) =  -0.0073373301
showmatrix final adiabatic -> diabatic RotMatrix(1,1) =   0.9999730814
location RotMatrix in boys_diabatic_nogs in checkunitary: max_diff = 1.110223e-16
showing H in adiabatic representation: NO coupling elements!!!
showmatrix adiabatH(0,0) =   0.0939089218
showmatrix adiabatH(1,0) =   0.0000000000
showmatrix adiabatH(0,1) =   0.0000000000
showmatrix adiabatH(1,1) =   0.1023601770
getting H in diabatic representation: WITH coupling elements!!!
showmatrix diabatH(0,0) =   0.0939093768
showmatrix diabatH(1,0) =   0.0000620080
showmatrix diabatH(0,1) =   0.0000620080
showmatrix diabatH(1,1) =   0.1023597220
FINAL CENTER LOCATIONS Spin Occ : state 0 x  8.496 y  1.194 z -0.445  Virt x  8.437 y  1.152 z -0.449
FINAL CENTER LOCATIONS Spin Occ : state 1 x -8.138 y  1.161 z  0.071  Virt x -8.123 y  1.166 z  0.107
FINAL CENTER2 LOCATIONS: state 0  Occ x 79.562 y  6.335 z  3.012 Virt x 79.117 y  6.314 z  3.925
FINAL CENTER2 LOCATIONS: state 1  Occ x 75.973 y  5.498 z  5.767 Virt x 76.610 y  5.557 z  5.895
FINAL STANDARD DEVIATIONS: state 0  Occ x  2.715 y  2.216 z  1.678 Virt x  2.816 y  2.233 z  1.930
FINAL STANDARD DEVIATIONS: state 1  Occ x  3.122 y  2.037 z  2.400 Virt x  3.259 y  2.049 z  2.426
FINAL: state 0 sum of square of distances to other Centers Occ 276.970117 Virt 274.560578 
FINAL: state 1 sum of square of distances to other Centers Occ 276.970117 Virt 274.560578 



Calculating ER second derivative! Everything should be negative. If so, we are done.
location hessian --max_diff from checksymmetry = 0.000000e+00
eval of hessian: count 0 eval -3.088181
 STSman time:  CPU 0.00 s  wall 0.00 s

 Analysis of SCF Wavefunction
 
 --------------------------------------------------------------
                    Orbital Energies (a.u.)
 --------------------------------------------------------------
 
 Alpha MOs
 -- Occupied --
-20.548 -11.322 -11.272 -11.259 -11.253 -11.248 -11.244 -11.244
-11.242 -11.239 -11.239 -11.238 -11.237 -11.234 -11.233 -11.233
-11.231 -11.231 -11.231 -11.229 -11.229 -11.228 -11.225 -11.224
 -1.378  -1.180  -1.162  -1.137  -1.109  -1.061  -1.048  -1.034
 -1.031  -0.998  -0.993  -0.974  -0.898  -0.864  -0.847  -0.840
 -0.827  -0.814  -0.804  -0.779  -0.767  -0.706  -0.702  -0.691
 -0.680  -0.657  -0.649  -0.640  -0.623  -0.619  -0.616  -0.603
 -0.602  -0.598  -0.588  -0.580  -0.571  -0.566  -0.556  -0.543
 -0.539  -0.525  -0.524  -0.520  -0.502  -0.495  -0.489  -0.481
 -0.480  -0.472  -0.460  -0.452  -0.438  -0.431  -0.416  -0.380
 -0.355  -0.318  -0.311  -0.288
 -- Virtual --
  0.070   0.101   0.129   0.140   0.188   0.219   0.221   0.222
  0.241   0.242   0.256   0.260   0.265   0.281   0.283   0.291
  0.291   0.299   0.312   0.317   0.320   0.323   0.328   0.330
  0.334   0.343   0.353   0.365   0.375   0.383   0.388   0.396
  0.412   0.415   0.417   0.425   0.434   0.440   0.455   0.457
  0.481   0.481   0.491   0.494   0.514   0.516   0.522   0.537
  0.547   0.569   0.583   0.594   0.666   0.691   0.698   0.706
  0.717   0.719   0.725   0.728   0.736   0.740   0.741   0.747
  0.748   0.753   0.758   0.768   0.780   0.785   0.793   0.795
  0.798   0.803   0.807   0.815   0.821   0.822   0.827   0.837
  0.843   0.852   0.860   0.864   0.870   0.876   0.886   0.902
  0.906   0.920   0.927   0.930   0.944   0.949   0.953   0.969
  0.975   0.984   0.999   1.003   1.024   1.033   1.044   1.053
  1.057   1.064   1.066   1.071   1.077   1.079   1.082   1.085
  1.090   1.095   1.100   1.104   1.112   1.115   1.118   1.123
  1.131   1.133   1.147   1.163   1.166   1.175   1.187   1.196
  1.199   1.209   1.214   1.219   1.221   1.228   1.231   1.239
  1.249   1.254   1.259   1.277   1.280   1.304   1.308   1.327
  1.343   1.366   1.379   1.388   1.393   1.401   1.419   1.429
  1.441   1.458   1.462   1.484   1.493   1.505   1.506   1.519
  1.549   1.567   1.573   1.602   1.608   1.619   1.627   1.639
  1.650   1.656   1.657   1.659   1.676   1.688   1.693   1.696
  1.701   1.708   1.719   1.723   1.730   1.767   1.781   1.796
  1.808   1.818   1.835   1.850   1.884   1.909   1.938   1.970
  1.994   2.023   2.034   2.041   2.048   2.054   2.058   2.071
  2.078   2.095   2.106   2.112   2.115   2.132   2.143   2.149
  2.156   2.167   2.176   2.184   2.192   2.196   2.200   2.205
  2.214   2.218   2.226   2.233   2.238   2.242   2.251   2.265
  2.271   2.275   2.290   2.292   2.301   2.301   2.318   2.340
  2.356   2.358   2.363   2.396   2.408   2.416   2.429   2.441
  2.447   2.453   2.461   2.465   2.487   2.497   2.505   2.524
  2.529   2.538   2.549   2.567   2.583   2.592   2.593   2.608
  2.614   2.629   2.632   2.648   2.655   2.661   2.679   2.687
  2.701   2.701   2.708   2.716   2.718   2.727   2.731   2.738
  2.744   2.755   2.765   2.777   2.779   2.788   2.797   2.800
  2.810   2.833   2.836   2.843   2.853   2.859   2.880   2.882
  2.889   2.902   2.910   2.919   2.921   2.927   2.945   2.950
  2.953   2.960   2.975   2.981   3.005   3.010   3.019   3.025
  3.045   3.061   3.067   3.081   3.093   3.103   3.115   3.127
  3.149   3.159   3.170   3.175   3.182   3.200   3.208   3.214
  3.225   3.232   3.241   3.262   3.274   3.290   3.327   3.359
  3.371   3.390   3.403   3.426   3.440   3.484   3.521   3.532
  3.554   3.606   3.630   3.631   3.638   3.660   3.660   3.688
  3.699   3.708   3.733   3.737   3.787   3.796   3.809   3.857
  3.873   3.887   3.889   3.915   3.921   3.928   3.988   4.169
  4.201   4.316   4.363   4.525   4.545   4.571   4.573   4.584
  4.605   4.616   4.650   4.730   4.765   4.793   4.831   4.845
  4.863   4.883   4.940   4.947   5.085   5.178   5.188   5.228
  5.270   5.381
 --------------------------------------------------------------
 
          Ground-State Mulliken Net Atomic Charges

     Atom                 Charge (a.u.)
  ----------------------------------------
      1 C                    -0.199234
      2 C                    -0.228487
      3 C                    -0.198708
      4 C                    -0.161613
      5 C                    -0.182291
      6 C                    -0.167659
      7 H                     0.126572
      8 H                     0.110233
      9 H                     0.122168
     10 H                     0.110154
     11 H                     0.126072
     12 H                     0.134407
     13 H                     0.110001
     14 H                     0.125272
     15 H                     0.107462
     16 C                     0.026614
     17 C                    -0.173895
     18 C                    -0.153118
     19 C                    -0.108896
     20 H                     0.151055
     21 C                    -0.086323
     22 H                     0.152778
     23 C                    -0.179970
     24 H                     0.165275
     25 H                     0.197530
     26 C                     0.396409
     27 H                     0.107162
     28 O                    -0.539168
     29 C                    -0.124921
     30 C                    -0.041060
     31 C                    -0.149098
     32 C                    -0.125231
     33 C                    -0.026907
     34 C                     0.010074
     35 C                    -0.159915
     36 H                     0.152108
     37 C                    -0.127474
     38 C                    -0.158979
     39 C                    -0.157622
     40 H                     0.150748
     41 H                     0.150510
     42 H                     0.146709
     43 H                     0.150670
     44 H                     0.153500
     45 H                     0.120295
     46 H                     0.146789
  ----------------------------------------
  Sum of atomic charges =     0.000000

 -----------------------------------------------------------------
                    Cartesian Multipole Moments
 -----------------------------------------------------------------
    Charge (ESU x 10^10)
                 0.0000
    Dipole Moment (Debye)
         X      -2.8763      Y      -2.5997      Z      -2.1296
       Tot       4.4234
    Quadrupole Moments (Debye-Ang)
        XX    -165.1668     XY     -18.5554     YY    -149.3053
        XZ     -14.8463     YZ      -1.3609     ZZ    -130.1927
    Octopole Moments (Debye-Ang^2)
       XXX    -252.6279    XXY     -50.8526    XYY     -39.7829
       YYY     -25.1904    XXZ    -130.8686    XYZ     -48.3654
       YYZ      -7.1295    XZZ       2.2733    YZZ       4.3149
       ZZZ      -1.3587
    Hexadecapole Moments (Debye-Ang^3)
      XXXX  -15811.2060   XXXY   -1063.2664   XXYY   -3130.9873
      XYYY     -74.0612   YYYY   -2229.3134   XXXZ    -692.4691
      XXYZ    -217.8432   XYYZ    -109.6135   YYYZ     -19.2787
      XXZZ   -2407.9486   XYZZ      -8.5007   YYZZ    -529.8005
      XZZZ      -1.7438   YZZZ      31.2888   ZZZZ    -937.0363
 -----------------------------------------------------------------
Archival summary:
1\1\fermi.chem.uh.edu\SP\HF\6-31G**\12322\xunmo\FriFeb2820:30:072014FriFeb2820:30:072014\0\\#,HF,6-31G**,\\0,1\C\C,1,1.36118\H,2,1.07714,1,119.862\C,2,1.42133,1,122.004,3,-179.983,0\C,4,1.40667,2,119.097,1,-0.0139945,0\C,5,1.41901,4,119.208,2,-179.989,0\H,6,1.07645,5,118.932,4,179.987,0\C,6,1.35873,5,120.671,4,-0.00471221,0\H,8,1.07564,6,120.277,5,179.993,0\C,8,1.41554,6,120.175,5,-0.000834489,0\H,10,1.07576,8,119.485,6,179.998,0\C,10,1.3588,8,120.342,6,0.00326928,0\H,12,1.07642,10,120.341,8,179.997,0\C,5,1.42038,4,118.391,2,0.0128023,0\H,14,1.07654,5,118.894,4,-179.996,0\C,14,1.35609,5,121.006,4,0,0\H,16,1.07548,14,119.197,5,179.977,0\C,1,1.51867,2,120.956,3,-0.00690117,0\H,18,1.08871,1,106.875,2,0.330025,0\C,18,1.5378,1,112.586,2,117.638,0\H,20,1.08621,18,109.542,1,-56.261,0\H,20,1.08835,18,109.73,1,60.4163,0\C,20,1.52995,18,111.378,1,-178.527,0\H,23,1.08665,20,109.956,18,-177.777,0\H,23,1.08923,20,109.337,18,65.6565,0\C,23,1.5302,20,111.747,18,-55.4994,0\H,26,1.08641,23,110.226,20,177.444,0\H,26,1.08846,23,109.194,20,-65.8138,0\C,18,1.53945,1,112.171,2,-116.798,0\H,29,1.086,18,109.524,1,56.0113,0\H,29,1.08755,18,109.607,1,-60.4956,0\C,26,1.54065,23,111.548,20,55.459,0\H,32,1.08923,26,106.961,23,61.3331,0\C,32,1.51105,26,112.696,23,178.746,0\C,34,1.44358,32,121.968,26,61.7202,0\H,35,1.07542,34,118.852,32,-0.101693,0\C,35,1.35448,34,122.202,32,179.896,0\H,37,1.07204,35,121.986,34,179.996,0\C,34,1.44704,32,120.879,26,-118.533,0\H,39,1.07624,34,118.347,32,0.122383,0\C,39,1.35521,34,122.181,32,-179.893,0\H,41,1.07534,39,120.866,34,-179.981,0\C,41,1.45317,39,120.05,34,0.020295,0\C,43,1.43899,41,121.174,39,-179.911,0\H,44,1.09167,43,116.447,41,-0.0472778,0\O,44,1.21182,43,123.228,41,179.942,0\\HF=-958.702776\\@

 Total job time:  2255.00s(wall), 2250.19s(cpu) 
 Fri Feb 28 20:30:07 2014

        *************************************************************
        *                                                           *
        *  Thank you very much for using Q-Chem.  Have a nice day.  *
        *                                                           *
        *************************************************************


0 sent ACK to 0 
now end server 0 ... 
cleanup process ... done
