
Running Job 1 of 4 INP/c13ea
qchem INP/c13ea_36362.0 /home/qchem_scratch/qchem36362/ 1
/home/QCHEM/bin/mpi/mpirun_qchem -machinefile /home/QCHEM/bin/mpi/machines -np 1 /home/QCHEM/exe/qcprog.exe INP/c13ea_36362.0 /home/qchem_scratch/qchem36362/

Process 0 of 1 is on fermi.chem.uh.edu - thread support 0
initial socket setup ...start
initial socket setup ...done 
now start server 0 ... 
                  Welcome to Q-Chem
     A Quantum Leap Into The Future Of Chemistry

 Y. Shao, L. Fusti-Molnar, Y. Jung, J. Kussmann, C. Ochsenfeld, S. T. Brown, 
 A. T. B. Gilbert, L. V. Slipchenko, S. V. Levchenko, D. P. O'Neill, 
 R. A. DiStasio Jr., R. C. Lochan, T. Wang, G. J. O. Beran, N. A. Besley, 
 J. M. Herbert, C. Y. Lin, T. Van Voorhis, S. H. Chien, A. Sodt, R. P. Steele, 
 V. A. Rassolov, P. E. Maslen, P. P. Korambath, R. D. Adamson, B. Austin, 
 J. Baker, E. F. C. Byrd, H. Dachsel, R. J. Doerksen, A. Dreuw, B. D. Dunietz, 
 A. D. Dutoi, T. R. Furlani, S. R. Gwaltney, A. Heyden, S. Hirata, C.-P. Hsu, 
 G. Kedziora, R. Z. Khaliullin, P. Klunzinger, A. M. Lee, M. S. Lee, W. Liang, 
 I. Lotan, N. Nair, B. Peters, E. I. Proynov, P. A. Pieniazek, Y. M. Rhee, 
 J. Ritchie, E. Rosta, C. D. Sherrill, A. C. Simmonett, J. E. Subotnik, 
 H. L. Woodcock III, W. Zhang, A. T. Bell, A. K. Chakraborty, D. M. Chipman, 
 F. J. Keil, A. Warshel, W. J. Hehre, H. F. Schaefer III, J. Kong, 
 A. I. Krylov, P. M. W. Gill, M. Head-Gordon

 Additional authors for Version 3.1: 
 Z. Gan, Y. Zhao, N. E. Schultz, D. Truhlar, E. Epifanovsky, M. Oana

 Additional authors for Version 3.2: 
 R. Baer, B. R. Brooks, D. Casanova, J.-D. Chai, C.-L. Cheng, C. Cramer, 
 D. Crittenden, A. Ghysels, G. Hawkins, E. G. Hohenstein, C. Kelley, 
 W. Kurlancheek, D. Liotard, E. Livshits, P. Manohar, A. Marenich, 
 D. Neuhauser, R. Olson, M. A. Rohrdanz, K. S. Thanthiriwatte, A. J. W. Thom, 
 V. Vanovschi, C. F. Williams, Q. Wu, Z.-Q. You

 Additional authors for Version 4.0: 
 A. Aspuru-Guzik, Y. Bernard, C. Chang, J. Deng, A. Dreuw, M. Diedenhofen, 
 R. G. Edgar, D. Ghosh, W. A. Goddard III, M. Goldey, L. D. Jacobson, 
 M. Gordon, B. Kaduk, I. Kaliman, K. Khistyaev, R. King, A. Klamt, 
 D. Kosenkov, T. Kus, D. Lambrecht, A. Landau, A. W. Lange, K. Lawler, F. Liu, 
 J. Liu, R. Olivares-Amaya, S. P. Mao, J. Parkhill, N. Russ, M. Schmidt, 
 N. Shenvi, D. Small, Y. C. Su, E. Sundstrom, L. Vogt, O. Vydrov, M. Watson, 
 M. Wormit, X. Xu, S. Yeganeh, I. Y. Zhang, D. Zuev

 Additional authors for Version 4.1: 
 X. Feng, M. W. D. Hanson-Heine, P. Horn, H. Ji, A. Laurent, R. Peverati, 
 N. Mardirossian, N. Sergueev, S. Sharada, P. Zimmerman

 Q-Chem, Version 4.1, Q-Chem, Inc., Pittsburgh, PA (2013).

 Parts of Q-Chem use Armadillo 3.6.2 (Piazza del Duomo).
 http://arma.sourceforge.net/

 Intel X86 Linux Version 4.1.2

 Q-chem begins on Fri Feb 28 08:30:07 2014  

Host: 
0

     Scratch files written to /home/qchem_scratch/qchem36362//
 Feb414 28838_zgan 2267   
 Parallel job on  1  processors
Processing $rem in /home/QCHEM/config/preferences.
 MEM_TOTAL  2000 
Finally everything over in PARseQInput

--------------------------------------------------------------
User input:
--------------------------------------------------------------
$comment
C1,3ea
$end
$molecule
0 1
C       1.5506838118    -2.3831453682    -0.7946898669
C       0.2149831466    -3.1162096710    -0.9404322540
C      -0.6279121441    -3.0309405891     0.3362806738
C      -0.8060879143    -1.6091337328     0.9149049602
C       0.5453297106    -0.8577894710     0.9480926580
C       1.3543086807    -0.9177393081    -0.3632479737
H      -1.6007561327    -3.4860807051     0.1762020689
H      -0.3310848846    -2.7159641795    -1.7888897053
H       0.3984273694    -4.1620644383    -1.1725394274
H       2.1602937475    -2.9000095142    -0.0559353655
H       2.1014545234    -2.4196299155    -1.7304550346
H      -1.0878880292    -1.7471521476     1.9539514517
H       0.3789338116     0.1766201123     1.2318529737
H       1.1481337003    -1.3018045984     1.7381524273
H       0.7752161119    -0.4238786348    -1.1382738595
H      -0.1314451150    -3.6273492740     1.1001899251
C       2.6587561283    -0.1616742558    -0.2495317019
C       2.8830955206     1.0449463786    -1.0179154007
C       3.7174905411    -0.5849070364     0.6347694148
C       4.0347601060     1.7534927767    -0.9295615668
H       2.1029188778     1.3824665525    -1.6779294937
C       4.8811169489     0.0996555140     0.7473005435
H       3.5784645382    -1.4735464513     1.2241255638
C       5.0947449682     1.3109256442    -0.0405206231
H       4.1788632199     2.6464927914    -1.5110873809
H       5.6658841177    -0.2187860250     1.4045716118
C       6.3287937066     2.0426909434     0.0696135792
H       6.4194991922     2.9385360766    -0.5476213672
O       7.2367408063     1.7077053009     0.7990386082
C      -2.9179313506    -0.3104585867     1.1425463596
C      -4.0100081943     0.4638484825     0.6700418802
C      -1.9502553479    -0.7975196728     0.3131257594
C      -5.0107582351     0.9666589482     1.5440384502
C      -4.1072137925     0.7418091631    -0.7048354540
C      -2.0683131473    -0.5055374080    -1.0776708884
C      -6.0445532405     1.7042879624     1.0624341340
H      -4.9377248844     0.7544404094     2.5967372912
C      -5.1985665660     1.5147769410    -1.1813425615
C      -3.1008419617     0.2306592508    -1.5630709006
H      -1.3346987423    -0.8717714031    -1.7674265203
C      -6.1409245303     1.9834192571    -0.3229485232
H      -6.7976444221     2.0813588691     1.7316641600
H      -5.2682910749     1.7241529627    -2.2349310849
H      -3.1647151931     0.4333721720    -2.6185432006
H      -6.9656155401     2.5686578555    -0.6895181838
H      -2.8663327110    -0.5123998957     2.1991100952
$end


$rem
MEM_TOTAL	20000
MEM_STATIC	5000
JOBTYPE    freq 
SYMMETRY   FALSE
EXCHANGE     	HF
CORRELATION  	none  (built-in)
BASIS       	6-31g** 
cis_state_deriv   1
cis_n_roots       3
cis_singlets      false
cis_triplets      true
max_scf_cycles=100
max_cis_cycles=100
$end

--------------------------------------------------------------
 ----------------------------------------------------------------
             Standard Nuclear Orientation (Angstroms)
    I     Atom           X                Y                Z
 ----------------------------------------------------------------
    1      C       1.5506838118    -2.3831453682    -0.7946898669
    2      C       0.2149831466    -3.1162096710    -0.9404322540
    3      C      -0.6279121441    -3.0309405891     0.3362806738
    4      C      -0.8060879143    -1.6091337328     0.9149049602
    5      C       0.5453297106    -0.8577894710     0.9480926580
    6      C       1.3543086807    -0.9177393081    -0.3632479737
    7      H      -1.6007561327    -3.4860807051     0.1762020690
    8      H      -0.3310848846    -2.7159641795    -1.7888897053
    9      H       0.3984273694    -4.1620644383    -1.1725394273
   10      H       2.1602937475    -2.9000095142    -0.0559353655
   11      H       2.1014545234    -2.4196299155    -1.7304550346
   12      H      -1.0878880292    -1.7471521476     1.9539514517
   13      H       0.3789338116     0.1766201123     1.2318529737
   14      H       1.1481337003    -1.3018045984     1.7381524273
   15      H       0.7752161119    -0.4238786348    -1.1382738595
   16      H      -0.1314451150    -3.6273492740     1.1001899252
   17      C       2.6587561283    -0.1616742558    -0.2495317019
   18      C       2.8830955206     1.0449463786    -1.0179154007
   19      C       3.7174905411    -0.5849070364     0.6347694148
   20      C       4.0347601060     1.7534927767    -0.9295615668
   21      H       2.1029188778     1.3824665525    -1.6779294937
   22      C       4.8811169489     0.0996555140     0.7473005435
   23      H       3.5784645382    -1.4735464513     1.2241255638
   24      C       5.0947449682     1.3109256442    -0.0405206231
   25      H       4.1788632199     2.6464927914    -1.5110873809
   26      H       5.6658841177    -0.2187860250     1.4045716118
   27      C       6.3287937066     2.0426909434     0.0696135792
   28      H       6.4194991922     2.9385360766    -0.5476213672
   29      O       7.2367408063     1.7077053009     0.7990386082
   30      C      -2.9179313506    -0.3104585867     1.1425463596
   31      C      -4.0100081943     0.4638484825     0.6700418802
   32      C      -1.9502553479    -0.7975196728     0.3131257594
   33      C      -5.0107582351     0.9666589482     1.5440384502
   34      C      -4.1072137925     0.7418091631    -0.7048354540
   35      C      -2.0683131473    -0.5055374080    -1.0776708884
   36      C      -6.0445532405     1.7042879624     1.0624341340
   37      H      -4.9377248844     0.7544404094     2.5967372912
   38      C      -5.1985665660     1.5147769410    -1.1813425615
   39      C      -3.1008419617     0.2306592508    -1.5630709006
   40      H      -1.3346987423    -0.8717714031    -1.7674265203
   41      C      -6.1409245303     1.9834192571    -0.3229485232
   42      H      -6.7976444221     2.0813588691     1.7316641600
   43      H      -5.2682910749     1.7241529627    -2.2349310849
   44      H      -3.1647151931     0.4333721720    -2.6185432006
   45      H      -6.9656155401     2.5686578555    -0.6895181838
   46      H      -2.8663327110    -0.5123998957     2.1991100952
 ----------------------------------------------------------------
 Molecular Point Group                 C1    NOp =  1
 Largest Abelian Subgroup              C1    NOp =  1
 Nuclear Repulsion Energy =  1833.6481605862 hartrees
 There are       84 alpha and       84 beta electrons
 Requested basis set is 6-31G(d,p)
 There are 162 shells and 470 basis functions

Total QAlloc Memory Limit  20000 MB
Mega-Array Size      4888 MB
MEM_STATIC part      5000 MB
 A cutoff of  1.0D-11 yielded   6983 shell pairs
 There are     59795 function pairs
 Smallest overlap matrix eigenvalue = 2.64E-04
 Guess from superposition of atomic densities
 Warning:  Energy on first SCF cycle will be non-variational
 A restricted Hartree-Fock SCF calculation will be
 performed using Pulay DIIS extrapolation
 SCF converges when DIIS error is below 1.0E-08
 ---------------------------------------
  Cycle       Energy         DIIS Error
 ---------------------------------------
    1    -969.0691818738      3.68E-02
    2    -958.3767837202      2.89E-03
    3    -958.6325668047      1.58E-03
    4    -958.6840401031      5.82E-04
    5    -958.6937788204      7.17E-05
    6    -958.6940156170      3.50E-05
    7    -958.6940843079      1.57E-05
    8    -958.6941030048      7.12E-06
    9    -958.6941072047      2.19E-06
   10    -958.6941076477      9.70E-07
   11    -958.6941077455      4.83E-07
   12    -958.6941077804      2.12E-07
   13    -958.6941077870      8.79E-08
   14    -958.6941077888      2.84E-08
   15    -958.6941077880      1.14E-08
   16    -958.6941077820      3.27E-09 Convergence criterion met
 ---------------------------------------
 SCF time:  CPU 526.00 s  wall 531.69 s
 SCF   energy in the final basis set = -958.6941077820
 Total energy in the final basis set = -958.6941077820
 Direct RCIS calculation will be performed
 Triplet excitation energies requested
 CIS energy converged when residual is below 10e- 6
 ---------------------------------------------------
 Iter    Rts Conv    Rts Left    Ttl Dev     Max Dev
 ---------------------------------------------------
   1         0           3      0.000897    0.000435
   2         0           3      0.000612    0.000303
   3         0           3      0.000486    0.000239
   4         0           3      0.000248    0.000139
   5         0           3      0.000156    0.000117
   6         0           3      0.000108    0.000097
   7         0           3      0.000053    0.000049
   8         0           3      0.000019    0.000017
   9         2           1      0.000015    0.000014
  10         2           1      0.000072    0.000071
  11         2           1      0.000104    0.000103
  12         2           1      0.000037    0.000036
  13         2           1      0.000019    0.000018
  14         2           1      0.000011    0.000010
  15         2           1      0.000007    0.000006
  16         2           1      0.000004    0.000003
  17         2           1      0.000002    0.000002
  18         2           1      0.000002    0.000001
  19         2           1      0.000003    0.000002
  20         2           1      0.000006    0.000005
  21         2           1      0.000022    0.000021
  22         2           1      0.000095    0.000094
  23         2           1      0.000034    0.000034
  24         2           1      0.000014    0.000013
  25         2           1      0.000006    0.000005
  26         2           1      0.000002    0.000002
  27         3           0      0.000001    0.000001    Roots Converged
 ---------------------------------------------------
 
 
 ---------------------------------------------------
               CIS Excitation Energies              
 ---------------------------------------------------

 Excited state   1: excitation energy (eV) =    2.5549
    Total energy for state   1:   -958.600216471808
    Multiplicity: Triplet 
    Trans. Mom.:  0.0000 X   0.0000 Y   0.0000 Z
    Strength   :  0.0000
    D( 81) --> V(  4) amplitude = -0.2865
    D( 82) --> V(  1) amplitude = -0.8048
    D( 83) --> V(  1) amplitude =  0.3885

 Excited state   2: excitation energy (eV) =    2.7665
    Total energy for state   2:   -958.592441151997
    Multiplicity: Triplet 
    Trans. Mom.:  0.0000 X   0.0000 Y   0.0000 Z
    Strength   :  0.0000
    D( 80) --> V(  5) amplitude =  0.3231
    D( 83) --> V(  3) amplitude = -0.3285
    D( 84) --> V(  2) amplitude =  0.8056

 Excited state   3: excitation energy (eV) =    4.0927
    Total energy for state   3:   -958.543703722604
    Multiplicity: Triplet 
    Trans. Mom.:  0.0000 X   0.0000 Y   0.0000 Z
    Strength   :  0.0000
    D( 79) --> V(  1) amplitude = -0.7988
    D( 79) --> V(  7) amplitude = -0.5263
 
 ---------------------------------------------------
 Calculating Relaxed Density
 ---------------------------------------------------
 Iter    Rts Conv    Rts Left    Ttl Dev     Max Dev
 ---------------------------------------------------
   1         0           3      0.000439    0.000217
   2         0           3      0.000141    0.000064
   3         0           3      0.000070    0.000032
   4         0           3      0.000022    0.000011
   5         0           3      0.000007    0.000003
   6         2           1      0.000001    0.000001
   7         3           0      0.000000    0.000000    Roots Converged
 ---------------------------------------------------
  Timing summary (seconds)
  CPU time       2575.48s
  System time       0.00s
  Wall time      2577.50s
 STSman time:  CPU 0.00 s  wall 0.00 s

 Analysis of SCF Wavefunction
 
 --------------------------------------------------------------
                    Orbital Energies (a.u.)
 --------------------------------------------------------------
 
 Alpha MOs
 -- Occupied --
-20.547 -11.322 -11.271 -11.258 -11.252 -11.247 -11.243 -11.243
-11.241 -11.241 -11.240 -11.239 -11.238 -11.236 -11.234 -11.234
-11.233 -11.233 -11.232 -11.230 -11.229 -11.228 -11.225 -11.225
 -1.377  -1.181  -1.161  -1.135  -1.108  -1.061  -1.048  -1.034
 -1.030  -0.999  -0.994  -0.976  -0.898  -0.864  -0.850  -0.839
 -0.829  -0.815  -0.809  -0.778  -0.756  -0.706  -0.705  -0.693
 -0.670  -0.664  -0.648  -0.639  -0.625  -0.619  -0.617  -0.605
 -0.601  -0.595  -0.588  -0.582  -0.576  -0.568  -0.554  -0.538
 -0.536  -0.529  -0.528  -0.520  -0.505  -0.500  -0.491  -0.480
 -0.478  -0.472  -0.452  -0.448  -0.438  -0.433  -0.416  -0.381
 -0.355  -0.317  -0.313  -0.289
 -- Virtual --
  0.071   0.098   0.127   0.141   0.186   0.214   0.220   0.227
  0.241   0.246   0.252   0.265   0.266   0.275   0.279   0.293
  0.294   0.305   0.311   0.319   0.326   0.328   0.329   0.333
  0.338   0.344   0.354   0.363   0.370   0.381   0.390   0.401
  0.407   0.413   0.419   0.430   0.439   0.446   0.463   0.466
  0.478   0.481   0.492   0.501   0.503   0.512   0.526   0.542
  0.549   0.558   0.569   0.597   0.666   0.691   0.697   0.714
  0.719   0.723   0.727   0.730   0.736   0.737   0.741   0.746
  0.751   0.755   0.758   0.770   0.780   0.786   0.792   0.794
  0.798   0.801   0.808   0.818   0.820   0.821   0.830   0.839
  0.842   0.855   0.861   0.864   0.867   0.881   0.889   0.893
  0.913   0.915   0.923   0.928   0.935   0.947   0.949   0.969
  0.974   0.983   1.002   1.020   1.028   1.034   1.040   1.047
  1.052   1.062   1.067   1.072   1.073   1.077   1.082   1.084
  1.087   1.096   1.099   1.105   1.115   1.120   1.123   1.128
  1.133   1.137   1.156   1.169   1.177   1.187   1.191   1.193
  1.199   1.211   1.214   1.217   1.221   1.225   1.231   1.238
  1.251   1.260   1.280   1.284   1.301   1.304   1.308   1.319
  1.337   1.356   1.367   1.380   1.383   1.399   1.421   1.427
  1.442   1.452   1.462   1.483   1.497   1.503   1.507   1.512
  1.544   1.552   1.578   1.581   1.603   1.611   1.625   1.633
  1.650   1.656   1.657   1.672   1.678   1.680   1.688   1.697
  1.707   1.711   1.724   1.730   1.748   1.764   1.767   1.790
  1.798   1.819   1.833   1.857   1.898   1.924   1.967   1.983
  2.001   2.007   2.032   2.033   2.050   2.053   2.056   2.062
  2.092   2.103   2.109   2.112   2.121   2.136   2.146   2.155
  2.158   2.171   2.176   2.185   2.189   2.195   2.202   2.208
  2.209   2.224   2.228   2.234   2.242   2.244   2.254   2.263
  2.272   2.276   2.292   2.300   2.303   2.308   2.330   2.337
  2.359   2.364   2.377   2.394   2.400   2.408   2.434   2.443
  2.451   2.454   2.461   2.471   2.497   2.503   2.506   2.518
  2.523   2.531   2.550   2.553   2.563   2.579   2.592   2.599
  2.605   2.617   2.630   2.646   2.655   2.664   2.674   2.681
  2.687   2.700   2.705   2.710   2.717   2.722   2.733   2.741
  2.745   2.758   2.768   2.776   2.783   2.791   2.797   2.809
  2.810   2.835   2.837   2.851   2.854   2.864   2.865   2.880
  2.890   2.902   2.918   2.920   2.927   2.936   2.948   2.950
  2.956   2.963   2.969   2.977   2.994   3.014   3.016   3.031
  3.053   3.057   3.061   3.067   3.093   3.096   3.105   3.120
  3.130   3.152   3.168   3.174   3.178   3.191   3.206   3.216
  3.220   3.224   3.261   3.265   3.278   3.289   3.312   3.349
  3.364   3.377   3.402   3.426   3.441   3.479   3.523   3.530
  3.556   3.623   3.628   3.630   3.639   3.661   3.668   3.691
  3.725   3.729   3.733   3.745   3.795   3.811   3.814   3.866
  3.882   3.888   3.889   3.898   3.917   3.926   3.982   4.166
  4.203   4.314   4.364   4.525   4.544   4.569   4.572   4.585
  4.605   4.615   4.634   4.720   4.758   4.781   4.833   4.844
  4.867   4.912   4.946   4.963   5.092   5.173   5.197   5.219
  5.272   5.382
 --------------------------------------------------------------
 
          Ground-State Mulliken Net Atomic Charges

     Atom                 Charge (a.u.)
  ----------------------------------------
      1 C                    -0.201942
      2 C                    -0.228359
      3 C                    -0.207110
      4 C                    -0.168601
      5 C                    -0.185561
      6 C                    -0.164633
      7 H                     0.128079
      8 H                     0.109938
      9 H                     0.122369
     10 H                     0.109360
     11 H                     0.125539
     12 H                     0.132383
     13 H                     0.134990
     14 H                     0.113029
     15 H                     0.127464
     16 H                     0.112700
     17 C                     0.025093
     18 C                    -0.173907
     19 C                    -0.153661
     20 C                    -0.109137
     21 H                     0.152893
     22 C                    -0.086979
     23 H                     0.153119
     24 C                    -0.180031
     25 H                     0.165292
     26 H                     0.197154
     27 C                     0.396347
     28 H                     0.107122
     29 O                    -0.539599
     30 C                    -0.162224
     31 C                    -0.024882
     32 C                     0.020350
     33 C                    -0.127092
     34 C                    -0.040302
     35 C                    -0.156694
     36 C                    -0.157615
     37 H                     0.151985
     38 C                    -0.124494
     39 C                    -0.127749
     40 H                     0.140631
     41 C                    -0.159785
     42 H                     0.151452
     43 H                     0.151893
     44 H                     0.152641
     45 H                     0.151121
     46 H                     0.147411
  ----------------------------------------
  Sum of atomic charges =     0.000000

 -----------------------------------------------------------------
                    Cartesian Multipole Moments
 -----------------------------------------------------------------
    Charge (ESU x 10^10)
                 0.0000
    Dipole Moment (Debye)
         X      -4.0948      Y      -0.7650      Z      -1.5779
       Tot       4.4545
    Quadrupole Moments (Debye-Ang)
        XX    -179.5194     XY     -10.2337     YY    -137.3917
        XZ     -10.9268     YZ      -8.1744     ZZ    -134.0006
    Octopole Moments (Debye-Ang^2)
       XXX    -383.9613    XXY      -0.3382    XYY      25.1436
       YYY       5.4915    XXZ     -65.6311    XYZ     -31.1943
       YYZ     -10.9790    XZZ     -21.8445    YZZ       3.8087
       ZZZ       2.3242
    Hexadecapole Moments (Debye-Ang^3)
      XXXX  -16058.1138   XXXY    -837.8434   XXYY   -2509.6853
      XYYY     112.0655   YYYY   -2244.5485   XXXZ    -609.4862
      XXYZ    -234.5098   XYYZ     -43.8333   YYYZ     -31.3688
      XXZZ   -2291.7808   XYZZ     -30.3736   YYZZ    -527.5008
      XZZZ      12.5122   YZZZ     -17.2003   ZZZZ    -898.7808
 -----------------------------------------------------------------
 Calculating MO derivatives via CPSCF
   1         3         138      0.160748    0.017414
   2         3         138      0.033795    0.005066
   3         3         138      0.006916    0.001237
   4         5         136      0.001001    0.000192
   5       124          17      0.000065    0.000021
   6       138           3      0.000006    0.000002
   7       141           0      0.000000    0.000000    Roots Converged
 Calculating CIS amplitude derivatives via CPCIS
 CIS relaxed dipole moment
            1
    1   0.2360697
    2   0.1075630
    3   0.0214212
	Magnitude:	 0.260 au	 0.662 Debye
 CIS Excitation Energy is    0.0938913102
 Gradient of the CIS Excitation Energy
            1           2           3           4           5           6
    1   0.0016166  -0.0003716   0.0000003   0.0000443   0.0013711  -0.0040798
    2  -0.0001845   0.0007159  -0.0001384   0.0000833   0.0007685  -0.0018677
    3   0.0000955  -0.0000868   0.0001179  -0.0009219   0.0011356  -0.0013574
            7           8           9          10          11          12
    1   0.0000567  -0.0000076   0.0002518  -0.0000917  -0.0000017   0.0003350
    2   0.0000577  -0.0000636   0.0002113   0.0002723  -0.0000114   0.0001612
    3  -0.0000177   0.0000195   0.0000405  -0.0001600   0.0001026  -0.0000469
           13          14          15          16          17          18
    1   0.0001005  -0.0000264   0.0005804  -0.0000074   0.0408098  -0.0325685
    2  -0.0000944   0.0001706   0.0001542  -0.0000022   0.0312994  -0.0503389
    3  -0.0000326  -0.0002775   0.0003060  -0.0000236   0.0009231   0.0192432
           19          20          21          22          23          24
    1  -0.0465369   0.0612891  -0.0007229   0.0214051  -0.0008105  -0.0632620
    2  -0.0030145  -0.0090969  -0.0008398   0.0589260  -0.0003423  -0.0369755
    3  -0.0231080   0.0391497   0.0001801  -0.0326012  -0.0002280  -0.0058333
           25          26          27          28          29          30
    1  -0.0000811   0.0007514   0.0381155   0.0003429  -0.0184719   0.0000733
    2   0.0006589  -0.0002612  -0.0031786   0.0013023   0.0116211  -0.0000675
    3  -0.0005949   0.0005448   0.0226594  -0.0007725  -0.0184349   0.0000338
           31          32          33          34          35          36
    1  -0.0000390  -0.0001848   0.0000162   0.0000227   0.0000396   0.0000070
    2   0.0000188   0.0001276  -0.0000190  -0.0000238  -0.0000336  -0.0000076
    3  -0.0000253  -0.0000711   0.0000314   0.0000369   0.0000674   0.0000039
           37          38          39          40          41          42
    1  -0.0000027  -0.0000049   0.0000007  -0.0000072   0.0000210   0.0000100
    2   0.0000064   0.0000058  -0.0000023   0.0000135  -0.0000152  -0.0000036
    3  -0.0000050  -0.0000369  -0.0000271  -0.0000681  -0.0000045  -0.0000040
           43          44          45          46
    1   0.0000038   0.0000141   0.0000100  -0.0000102
    2  -0.0000009  -0.0000016  -0.0000046   0.0000149
    3   0.0000124   0.0000197   0.0000015   0.0000145
gradient:-0.001619
gradient:0.000187
gradient:-0.000093
gradient:0.000374
gradient:-0.000716
gradient:0.000090
gradient:0.000001
gradient:0.000141
gradient:-0.000118
gradient:-0.000040
gradient:-0.000085
gradient:0.000922
gradient:-0.001371
gradient:-0.000770
gradient:-0.001138
gradient:0.004065
gradient:0.001857
gradient:0.001357
gradient:-0.000057
gradient:-0.000057
gradient:0.000017
gradient:0.000008
gradient:0.000064
gradient:-0.000019
gradient:-0.000252
gradient:-0.000211
gradient:-0.000041
gradient:0.000091
gradient:-0.000275
gradient:0.000161
gradient:-0.000000
gradient:0.000010
gradient:-0.000103
gradient:-0.000335
gradient:-0.000161
gradient:0.000046
gradient:-0.000103
gradient:0.000093
gradient:0.000033
gradient:0.000025
gradient:-0.000172
gradient:0.000279
gradient:-0.000584
gradient:-0.000151
gradient:-0.000311
gradient:0.000007
gradient:0.000003
gradient:0.000023
gradient:-0.040790
gradient:-0.031240
gradient:-0.000958
gradient:0.032551
gradient:0.050284
gradient:-0.019212
gradient:0.046564
gradient:0.003034
gradient:0.023109
gradient:-0.061258
gradient:0.009097
gradient:-0.039133
gradient:0.000732
gradient:0.000847
gradient:-0.000180
gradient:-0.021429
gradient:-0.058936
gradient:0.032595
gradient:0.000816
gradient:0.000344
gradient:0.000230
gradient:0.063175
gradient:0.036924
gradient:0.005826
gradient:0.000075
gradient:-0.000661
gradient:0.000593
gradient:-0.000748
gradient:0.000261
gradient:-0.000542
gradient:-0.038096
gradient:0.003234
gradient:-0.022689
gradient:-0.000345
gradient:-0.001292
gradient:0.000761
gradient:0.018510
gradient:-0.011644
gradient:0.018473
gradient:-0.000072
gradient:0.000066
gradient:-0.000036
gradient:0.000038
gradient:-0.000018
gradient:0.000022
gradient:0.000185
gradient:-0.000127
gradient:0.000073
gradient:-0.000015
gradient:0.000019
gradient:-0.000033
gradient:-0.000022
gradient:0.000023
gradient:-0.000036
gradient:-0.000041
gradient:0.000034
gradient:-0.000068
gradient:-0.000006
gradient:0.000006
gradient:-0.000002
gradient:0.000003
gradient:-0.000007
gradient:0.000005
gradient:0.000007
gradient:-0.000007
gradient:0.000039
gradient:-0.000003
gradient:0.000003
gradient:0.000030
gradient:0.000007
gradient:-0.000013
gradient:0.000069
gradient:-0.000019
gradient:0.000014
gradient:0.000001
gradient:-0.000011
gradient:0.000004
gradient:0.000005
gradient:-0.000003
gradient:0.000000
gradient:-0.000011
gradient:-0.000015
gradient:0.000002
gradient:-0.000019
gradient:-0.000011
gradient:0.000006
gradient:-0.000002
gradient:0.000010
gradient:-0.000014
gradient:-0.000014
gradient:0.236140
gradient:0.107559
gradient:0.021410
   1        23         118      0.017692    0.003647
   2        55          86      0.003293    0.000511
   3        86          55      0.000686    0.000076
   4       106          35      0.000153    0.000016
   5       130          11      0.000018    0.000003
   6       141           0      0.000000    0.000000    Roots Converged
 CPCIS time:  CPU 7455.22 s  wall 7542.58 s
 transition dipole derivative
            1           2           3
    1  -0.0233964  -0.0294517  -0.0419819
    2   0.0493390   0.1084966   0.0118190
    3  -0.0041850   0.0290091   0.0245890
    4   0.0231108   0.0202008   0.0078212
    5   0.0031107  -0.0110217  -0.0048276
    6  -0.0016360  -0.0003621  -0.0039742
    7  -0.0035421  -0.0002991   0.0022787
    8   0.0018607   0.0011861   0.0002140
    9  -0.0034570  -0.0030670  -0.0015921
   10   0.0376616   0.0167880  -0.0185998
   11   0.0230268   0.0035058   0.0025158
   12   0.0230438   0.0079032  -0.0209103
   13   0.0102493   0.0261944  -0.0238628
   14  -0.0375850   0.0274112   0.0218163
   15  -0.1206504  -0.0347312   0.0683015
   16  -0.2729454  -0.1307027   0.1112060
   17  -0.1390373  -0.2435203  -0.0737555
   18   0.1394370  -0.0513404  -0.1484537
   19  -0.0026485  -0.0009198  -0.0010389
   20  -0.0026584  -0.0009541  -0.0002279
   21   0.0004123   0.0002164   0.0003744
   22  -0.0048989   0.0015544  -0.0041042
   23  -0.0003427   0.0016334  -0.0006226
   24  -0.0025250   0.0005825  -0.0021920
   25  -0.0046816  -0.0057616  -0.0034753
   26  -0.0024071   0.0022798  -0.0013557
   27  -0.0003065   0.0001993   0.0001245
   28   0.0010246   0.0042473   0.0002911
   29   0.0125507  -0.0206938   0.0174448
   30  -0.0015334   0.0057922  -0.0056113
   31   0.0081587   0.0028847   0.0005275
   32  -0.0004397   0.0004024  -0.0062652
   33  -0.0009617  -0.0072152  -0.0005306
   34  -0.0082270  -0.0034061   0.0019521
   35  -0.0036008  -0.0002386   0.0015389
   36  -0.0031161  -0.0021096   0.0046073
   37   0.0006134   0.0080158   0.0005217
   38   0.0086674   0.0023028  -0.0025106
   39   0.0089820  -0.0065960   0.0044764
   40   0.0063459  -0.0031832   0.0043706
   41   0.0061169  -0.0090763   0.0098717
   42  -0.0096310   0.0176850  -0.0231085
   43  -0.0145537   0.0284539  -0.0326798
   44  -0.0049852   0.0059123  -0.0086205
   45  -0.0141345   0.0101268  -0.0128591
   46   0.0004725   0.0003153  -0.0000066
   47   0.0008467  -0.0005414   0.0010589
   48   0.0003337   0.0010622  -0.0002612
   49   1.6495731  -0.2900548   0.5838490
   50  -0.5804093   2.3462317  -1.3437042
   51   0.8019686  -1.1824163   2.2586967
   52  -1.6331354  -1.1923778   0.3341955
   53  -0.5987226  -2.3120738   0.9199977
   54  -0.0959349   0.6053238  -1.1151324
   55  -2.8488125  -0.0689713  -1.1468946
   56  -0.5052821  -0.9706653  -0.0126666
   57  -0.8197341   0.2213262  -1.2334184
   58   2.6541181   0.4203355   0.7723378
   59   0.4829985   1.1222214  -0.0954360
   60   0.7056694  -0.1235927   1.1344359
   61   0.0353034  -0.0292950  -0.0031220
   62  -0.0120054   0.0086607   0.0471394
   63  -0.0140073   0.0366229   0.0475816
   64   2.0166227   0.8078816   0.1234097
   65   0.8592369   1.8401017  -0.3928980
   66   0.0807188  -0.4400488   1.0258675
   67   0.0051945  -0.0038300  -0.0358773
   68  -0.0112962   0.0384168   0.0221960
   69  -0.0304594   0.0278796   0.0394912
   70  -2.2929241   0.1779375  -0.8913362
   71  -0.1064422  -1.8698313   0.6546281
   72  -0.6574052   0.8185891  -1.8569078
   73  -0.0140676   0.0239058   0.0212664
   74   0.0259029  -0.0451154  -0.0172548
   75   0.0187062  -0.0180862  -0.0645904
   76  -0.0282876   0.0278550   0.0106234
   77   0.0326451  -0.0396491  -0.0175973
   78   0.0063147  -0.0209017  -0.0674009
   79   1.9243921   0.0118434   0.8640819
   80   0.0487651   0.2549630   0.0556008
   81   0.8270732   0.0379601   0.7146413
   82   0.0011012   0.0339626  -0.0008917
   83   0.0322638  -0.0228398   0.0014756
   84   0.0001564   0.0018517  -0.0462655
   85  -1.2123895   0.1445805  -0.6333118
   86   0.4171086  -0.2176047   0.2161110
   87  -0.8306306   0.0678356  -0.7254742
   88   0.0059289  -0.0013370  -0.0194254
   89  -0.0029841   0.0019680   0.0121196
   90  -0.0055425  -0.0015056   0.0146201
   91  -0.0053777   0.0034762   0.0022174
   92   0.0033817  -0.0034612  -0.0010020
   93   0.0014515  -0.0004218   0.0014316
   94  -0.0080733   0.0001714   0.0201741
   95  -0.0020234  -0.0001985  -0.0167983
   96   0.0037251   0.0017013  -0.0176416
   97   0.0071212  -0.0059561   0.0116490
   98  -0.0031079   0.0051750  -0.0081570
   99  -0.0022934  -0.0015380   0.0065656
  100   0.0068703  -0.0027702  -0.0059023
  101  -0.0029808   0.0031526   0.0038010
  102  -0.0024725   0.0007927  -0.0010223
  103   0.0044848  -0.0064003   0.0145584
  104  -0.0017682   0.0043777  -0.0115803
  105   0.0021196  -0.0060696   0.0146296
  106  -0.0053294   0.0043248  -0.0143629
  107   0.0031882  -0.0046539   0.0117595
  108  -0.0031382   0.0041421  -0.0170237
  109   0.0002081  -0.0000170   0.0001576
  110  -0.0003599  -0.0001003  -0.0001200
  111   0.0001858   0.0003094  -0.0003223
  112  -0.0076946   0.0010457   0.0194787
  113   0.0035211  -0.0028124  -0.0102427
  114   0.0034448   0.0019080  -0.0140689
  115  -0.0098296   0.0071453  -0.0112673
  116   0.0053801  -0.0075938   0.0094097
  117   0.0014319   0.0017218  -0.0082448
  118   0.0003680   0.0004950  -0.0002534
  119  -0.0004984   0.0017853  -0.0018192
  120   0.0025418   0.0011329   0.0008090
  121   0.0036904   0.0005454  -0.0174985
  122  -0.0008650   0.0014350   0.0074676
  123  -0.0018321  -0.0023345   0.0267992
  124  -0.0005530  -0.0002345  -0.0001325
  125   0.0002582   0.0002702   0.0000039
  126   0.0002434   0.0003091  -0.0002946
  127  -0.0001223   0.0003093   0.0000026
  128   0.0000660   0.0002454  -0.0001632
  129  -0.0006016  -0.0000860  -0.0000788
  130  -0.0006200   0.0006886  -0.0006746
  131   0.0001922   0.0003334   0.0000213
  132  -0.0009054   0.0002537  -0.0003564
  133  -0.0007487  -0.0003025  -0.0001392
  134   0.0002344   0.0000916  -0.0001517
  135  -0.0001992  -0.0001211   0.0003363
  136   0.0002454   0.0001123  -0.0001314
  137  -0.0008602   0.0000859  -0.0002335
  138  -0.0006670   0.0003070  -0.0006428
mem use when entering cis_hess,0,625000000
mem use when entering PV,0,625000000
mem use when entering PT + WS,0,625000000
mem use when entering II^xy,0,625000000
mem use when entering PCM,0,625000000
mem use when entering E^xy,0,625000000
mem use when entering PF,0,625000000
mem use when entering ws,0,625000000
mem use when entering RPA_Hess_IIx,0,625000000
Nshell = 162 
s2Bra.ftnCode() = 360011 
 hess cis_hess_iirx
            1           2           3           4           5           6
    1  -0.0447471  -0.0392029   0.0017739  -0.0003386  -0.0002713   0.0000882
    2  -0.0392029  -0.0428845   0.0023908   0.0003109   0.0026524   0.0001873
    3   0.0017739   0.0023908  -0.0029350  -0.0003277  -0.0007419   0.0003325
    4  -0.0003386   0.0003109  -0.0003277  -0.0015726  -0.0018494  -0.0001607
    5  -0.0002713   0.0026524  -0.0007419  -0.0018494  -0.0038637  -0.0002021
    6   0.0000882   0.0001873   0.0003325  -0.0001607  -0.0002021  -0.0002462
    7   0.0006820   0.0005910   0.0000227   0.0001836   0.0000589   0.0000360
    8   0.0002440   0.0000767   0.0000742   0.0001317   0.0002416   0.0000730
    9  -0.0002242  -0.0002860   0.0000513   0.0000250   0.0001573   0.0000601
   10  -0.0006476  -0.0008089  -0.0003049  -0.0005601  -0.0006803  -0.0000407
   11  -0.0006425  -0.0005596  -0.0000683  -0.0003289  -0.0004567  -0.0001051
   12   0.0003780   0.0006697   0.0000933   0.0003638   0.0002677   0.0000315
   13  -0.0021954  -0.0010362   0.0003574  -0.0008043  -0.0015085   0.0000028
   14  -0.0009992  -0.0008370  -0.0008314  -0.0003316  -0.0007529   0.0001558
   15   0.0007590  -0.0008441  -0.0002067   0.0000043   0.0004182   0.0000005
   16   0.0708882   0.0619059  -0.0041278   0.0070503   0.0101718   0.0001788
   17   0.0029474   0.0073383   0.0021087  -0.0022665  -0.0036054  -0.0002622
   18  -0.0369814  -0.0290194   0.0044247  -0.0060974  -0.0091925  -0.0002477
   19  -0.0000355  -0.0000345   0.0000061   0.0000052   0.0000098   0.0000030
   20   0.0000696   0.0000699  -0.0000108  -0.0000045  -0.0000140  -0.0000043
   21   0.0000917   0.0000901  -0.0000128  -0.0000065  -0.0000172  -0.0000058
   22  -0.0001389  -0.0001253  -0.0000052  -0.0000031  -0.0000065   0.0000175
   23  -0.0001165  -0.0001251   0.0000002   0.0000426   0.0000633   0.0000011
   24  -0.0000210   0.0000029  -0.0000042  -0.0000049  -0.0000380   0.0000056
   25   0.0001681   0.0003971   0.0000130   0.0003572   0.0001095   0.0000441
   26   0.0000830   0.0002296   0.0000095   0.0003145   0.0001468   0.0000126
   27   0.0001199   0.0001522   0.0000178   0.0000920   0.0000195   0.0000453
   28   0.0013456   0.0009421  -0.0001449  -0.0001032  -0.0001166   0.0000103
   29   0.0006863   0.0009898  -0.0000355  -0.0000729  -0.0001423   0.0000272
   30  -0.0000098  -0.0000454   0.0002693   0.0000935   0.0000492  -0.0000108
   31   0.0058130   0.0041187  -0.0004132   0.0001069   0.0002616  -0.0000226
   32   0.0043595   0.0037781  -0.0002502   0.0000021   0.0000367  -0.0000585
   33   0.0006000   0.0006130   0.0002084  -0.0000588  -0.0000359  -0.0000567
   34   0.0002657   0.0000541   0.0000442   0.0001402   0.0002236   0.0000009
   35   0.0000691  -0.0000318   0.0000129   0.0000689   0.0001222   0.0000165
   36  -0.0000397  -0.0000002  -0.0000245  -0.0000402  -0.0000466   0.0000098
   37   0.0011338   0.0004158   0.0000252  -0.0000321  -0.0002046  -0.0000143
   38   0.0006442   0.0003501   0.0000489   0.0000114  -0.0000422  -0.0000056
   39   0.0001898   0.0002523   0.0000013   0.0000233   0.0000414   0.0000020
   40  -0.0007304  -0.0004241  -0.0000044  -0.0000484  -0.0000300  -0.0000087
   41  -0.0009649  -0.0007006   0.0000516  -0.0000702  -0.0000404  -0.0000184
   42  -0.0002853  -0.0002363   0.0000482   0.0000338   0.0000620  -0.0000015
   43  -0.0005125  -0.0004797   0.0001796   0.0000133   0.0000068   0.0000187
   44  -0.0001006  -0.0000220  -0.0001154  -0.0000287  -0.0000491  -0.0000155
   45   0.0004865   0.0003987  -0.0002526  -0.0000132  -0.0000192  -0.0000181
   46   0.0000110   0.0000118  -0.0000019  -0.0000023  -0.0000037   0.0000001
   47  -0.0000264  -0.0000245   0.0000023  -0.0000057  -0.0000028   0.0000009
   48  -0.0000238  -0.0000234   0.0000022  -0.0000036   0.0000003  -0.0000006
   49  -0.0194320  -0.0209424   0.0035678  -0.0030006  -0.0022513   0.0000075
   50   0.0195594   0.0205090  -0.0028159   0.0024874   0.0023888  -0.0001785
   51   0.0211354   0.0209660  -0.0036095   0.0037887   0.0037022  -0.0003529
   52   0.0039846   0.0072358  -0.0025970  -0.0005697  -0.0021137  -0.0002468
   53  -0.0030788  -0.0048438   0.0024579   0.0006117   0.0013682   0.0004412
   54  -0.0059343  -0.0120044   0.0048263   0.0009686   0.0036971   0.0004534
   55  -0.0156786  -0.0126378   0.0017470  -0.0004150  -0.0013492   0.0002405
   56   0.0135184   0.0117440  -0.0022072   0.0005049   0.0010235  -0.0001899
   57   0.0143433   0.0135301  -0.0028404   0.0007383   0.0008688  -0.0001449
   58  -0.0020801  -0.0011849  -0.0001693  -0.0002072  -0.0006066  -0.0000731
   59   0.0007166  -0.0003757   0.0004371   0.0002919   0.0008788   0.0001605
   60   0.0011285   0.0001465   0.0003370   0.0004926   0.0011850   0.0001896
   61  -0.0000960   0.0000078  -0.0000329  -0.0000439  -0.0000922  -0.0000194
   62   0.0001256  -0.0000177   0.0000453   0.0000558   0.0001189   0.0000244
   63   0.0000884  -0.0000963   0.0000815   0.0000724   0.0001477   0.0000312
   64   0.0009086  -0.0001736   0.0004268  -0.0003085  -0.0002057  -0.0000602
   65   0.0035615   0.0036345  -0.0006447   0.0003532   0.0003971  -0.0000347
   66   0.0032530   0.0042875  -0.0010819   0.0004107   0.0003655  -0.0000118
   67  -0.0005311  -0.0001917  -0.0001122  -0.0000161  -0.0000393  -0.0000187
   68   0.0007064   0.0002668   0.0001457   0.0000195   0.0000484   0.0000232
   69   0.0011206   0.0004740   0.0002182   0.0000322   0.0000830   0.0000352
   70   0.0027192   0.0017549  -0.0000184   0.0001212   0.0005984   0.0000057
   71  -0.0015356  -0.0014126   0.0000065  -0.0003683  -0.0004609  -0.0000457
   72  -0.0022414  -0.0020956   0.0001667  -0.0004159  -0.0006766  -0.0000783
   73   0.0001743   0.0001583  -0.0000754  -0.0000119  -0.0000100  -0.0000036
   74  -0.0003155  -0.0002983   0.0001132   0.0000149   0.0000125   0.0000045
   75  -0.0002728  -0.0002651   0.0001468   0.0000230   0.0000211   0.0000075
   76  -0.0001313  -0.0002509   0.0001161  -0.0000020   0.0000281   0.0000028
   77   0.0002580   0.0004205  -0.0001697   0.0000004  -0.0000488  -0.0000037
   78   0.0004158   0.0006299  -0.0002305  -0.0000018  -0.0000777  -0.0000049
   79  -0.0013957  -0.0005818   0.0000642   0.0001167  -0.0002777   0.0000281
   80   0.0001103   0.0002342   0.0000024   0.0000433   0.0000057  -0.0000051
   81  -0.0007027  -0.0003045   0.0000723   0.0000870  -0.0000841  -0.0000001
   82   0.0000312   0.0000651  -0.0000268   0.0000004  -0.0000139   0.0000006
   83  -0.0000473  -0.0000782   0.0000311  -0.0000003   0.0000159  -0.0000012
   84  -0.0000225  -0.0000919   0.0000470  -0.0000009   0.0000276  -0.0000010
   85   0.0007527   0.0001958   0.0000201  -0.0000747   0.0001829  -0.0000076
   86  -0.0002366  -0.0000026  -0.0000548   0.0000213  -0.0000725  -0.0000046
   87   0.0007044   0.0004300  -0.0001113  -0.0000546   0.0000970  -0.0000178
   88   0.0000491   0.0000105   0.0000062   0.0000435   0.0000577   0.0000012
   89  -0.0000016   0.0000053   0.0000072   0.0000011   0.0000097   0.0000014
   90   0.0000484   0.0000239  -0.0000012   0.0000234   0.0000308   0.0000001
   91  -0.0000059  -0.0000062   0.0000009  -0.0000031  -0.0000031   0.0000001
   92   0.0000311   0.0000161  -0.0000061  -0.0000028  -0.0000020   0.0000004
   93  -0.0000122  -0.0000069   0.0000000  -0.0000041  -0.0000059   0.0000000
   94  -0.0002936  -0.0001397   0.0000044   0.0000224  -0.0000425  -0.0000090
   95  -0.0001299  -0.0001136   0.0000167   0.0000945   0.0000918   0.0000063
   96   0.0000365   0.0000629  -0.0000270  -0.0000736  -0.0000909  -0.0000052
   97   0.0000046   0.0000020  -0.0000002   0.0000020   0.0000027   0.0000001
   98   0.0000035   0.0000028   0.0000008   0.0000028   0.0000029   0.0000001
   99   0.0000007   0.0000008  -0.0000005   0.0000003   0.0000007  -0.0000001
  100   0.0000055   0.0000013  -0.0000003   0.0000088   0.0000111   0.0000002
  101  -0.0000046  -0.0000097   0.0000017   0.0000093   0.0000111   0.0000007
  102   0.0000110   0.0000048   0.0000001   0.0000059   0.0000081   0.0000002
  103   0.0000679   0.0000629  -0.0000165  -0.0000475  -0.0000444  -0.0000022
  104   0.0000071   0.0000175  -0.0000081  -0.0000330  -0.0000387  -0.0000005
  105  -0.0000050  -0.0000021  -0.0000004   0.0000073   0.0000064   0.0000008
  106  -0.0000021  -0.0000006  -0.0000001  -0.0000011  -0.0000015  -0.0000001
  107  -0.0000023  -0.0000020  -0.0000000  -0.0000010  -0.0000013   0.0000000
  108   0.0000009   0.0000015  -0.0000005   0.0000000   0.0000000  -0.0000000
  109  -0.0000008  -0.0000007   0.0000003   0.0000001   0.0000000   0.0000000
  110  -0.0000003  -0.0000003   0.0000001   0.0000001   0.0000002  -0.0000000
  111  -0.0000003  -0.0000002   0.0000000  -0.0000000  -0.0000001   0.0000000
  112  -0.0000010  -0.0000004  -0.0000002  -0.0000015  -0.0000024  -0.0000001
  113  -0.0000034  -0.0000006  -0.0000005  -0.0000024  -0.0000033  -0.0000003
  114  -0.0000028  -0.0000015   0.0000005  -0.0000013  -0.0000023  -0.0000000
  115  -0.0000328  -0.0000210  -0.0000015  -0.0000147  -0.0000185   0.0000003
  116  -0.0000105   0.0000042  -0.0000037  -0.0000153  -0.0000198  -0.0000004
  117  -0.0000151  -0.0000074  -0.0000028  -0.0000104  -0.0000143   0.0000001
  118  -0.0000034  -0.0000083   0.0000036   0.0000047   0.0000064   0.0000000
  119   0.0000070   0.0000083   0.0000003  -0.0000067  -0.0000090  -0.0000005
  120   0.0000136   0.0000132  -0.0000026  -0.0000115  -0.0000135  -0.0000008
  121  -0.0000003   0.0000003  -0.0000011  -0.0000003  -0.0000001   0.0000001
  122  -0.0000026  -0.0000015  -0.0000002  -0.0000012  -0.0000019   0.0000001
  123  -0.0000003  -0.0000013  -0.0000001  -0.0000000   0.0000001   0.0000001
  124   0.0000004   0.0000003  -0.0000002   0.0000001   0.0000002  -0.0000000
  125  -0.0000005  -0.0000003   0.0000001  -0.0000001  -0.0000002   0.0000000
  126  -0.0000003  -0.0000002   0.0000001  -0.0000001  -0.0000001   0.0000000
  127   0.0000000  -0.0000000  -0.0000000  -0.0000000  -0.0000000  -0.0000000
  128  -0.0000002  -0.0000002   0.0000002   0.0000000   0.0000000  -0.0000000
  129   0.0000005   0.0000003  -0.0000003   0.0000001   0.0000002  -0.0000000
  130   0.0000019   0.0000018  -0.0000002  -0.0000006  -0.0000006  -0.0000001
  131   0.0000010   0.0000010   0.0000005  -0.0000005  -0.0000006  -0.0000001
  132   0.0000007   0.0000005  -0.0000003  -0.0000000   0.0000001  -0.0000001
  133  -0.0000000   0.0000001  -0.0000002  -0.0000002  -0.0000001  -0.0000000
  134  -0.0000009  -0.0000005   0.0000001  -0.0000006  -0.0000007  -0.0000000
  135   0.0000000   0.0000000  -0.0000001  -0.0000001  -0.0000001  -0.0000000
  136   0.0000233   0.0000074   0.0000030   0.0000067   0.0000142   0.0000006
  137  -0.0000141  -0.0000059  -0.0000016  -0.0000036  -0.0000077  -0.0000005
  138   0.0000060   0.0000033  -0.0000003   0.0000013   0.0000021  -0.0000002
            7           8           9          10          11          12
    1   0.0006820   0.0002440  -0.0002242  -0.0006476  -0.0006425   0.0003780
    2   0.0005910   0.0000767  -0.0002860  -0.0008089  -0.0005596   0.0006697
    3   0.0000227   0.0000742   0.0000513  -0.0003049  -0.0000683   0.0000933
    4   0.0001836   0.0001317   0.0000250  -0.0005601  -0.0003289   0.0003638
    5   0.0000589   0.0002416   0.0001573  -0.0006803  -0.0004567   0.0002677
    6   0.0000360   0.0000730   0.0000601  -0.0000407  -0.0001051   0.0000315
    7  -0.0005145  -0.0001856   0.0001626   0.0005587   0.0002635  -0.0003473
    8  -0.0001856  -0.0002717  -0.0000966  -0.0001142  -0.0000313   0.0000979
    9   0.0001626  -0.0000966  -0.0001921  -0.0003902  -0.0001701   0.0002837
   10   0.0005587  -0.0001142  -0.0003902  -0.0058887  -0.0031743   0.0031389
   11   0.0002635  -0.0000313  -0.0001701  -0.0031743  -0.0021675   0.0017166
   12  -0.0003473   0.0000979   0.0002837   0.0031389   0.0017166  -0.0025937
   13   0.0000490   0.0005679   0.0005350   0.0024186   0.0007625  -0.0023441
   14  -0.0000754   0.0003147   0.0003664   0.0014920   0.0010114  -0.0016747
   15   0.0002209  -0.0001026  -0.0002251  -0.0025658  -0.0013254   0.0027127
   16  -0.0007146  -0.0007944  -0.0002465  -0.0018155  -0.0009378   0.0014172
   17  -0.0009855   0.0001302   0.0000569   0.0133904   0.0087106  -0.0061918
   18  -0.0005003   0.0005499   0.0001611   0.0135984   0.0084957  -0.0064436
   19   0.0000193  -0.0000250  -0.0000356  -0.0000428  -0.0000252   0.0000264
   20  -0.0000317   0.0000348   0.0000525   0.0000660   0.0000384  -0.0000414
   21  -0.0000436   0.0000470   0.0000730   0.0000905   0.0000528  -0.0000562
   22   0.0000060   0.0000001  -0.0000070  -0.0000295  -0.0000160   0.0000188
   23  -0.0000004  -0.0000055  -0.0000058  -0.0000054  -0.0000031   0.0000015
   24   0.0000004   0.0000050   0.0000012  -0.0000097  -0.0000094  -0.0000004
   25  -0.0000479  -0.0000239   0.0000034   0.0001693   0.0001017  -0.0001099
   26  -0.0000164  -0.0000106   0.0000031   0.0001463   0.0001022  -0.0000767
   27  -0.0000092   0.0000022  -0.0000031   0.0000447   0.0000440  -0.0000231
   28   0.0000607   0.0000452   0.0000081  -0.0000888  -0.0000580   0.0000279
   29   0.0000196   0.0000000  -0.0000079  -0.0001348  -0.0000880   0.0000688
   30  -0.0000301  -0.0000191  -0.0000016   0.0000759   0.0000442  -0.0000243
   31  -0.0000410  -0.0001918  -0.0001296  -0.0002834  -0.0001022   0.0002129
   32  -0.0000104  -0.0001501  -0.0001147  -0.0002784  -0.0001221   0.0002102
   33   0.0000230  -0.0000282  -0.0000347  -0.0001021  -0.0000524   0.0000713
   34  -0.0000627   0.0000070   0.0000352   0.0008359   0.0005549  -0.0000755
   35  -0.0000397  -0.0000007   0.0000228   0.0004907   0.0003759  -0.0000579
   36  -0.0000033  -0.0000102  -0.0000068  -0.0002030  -0.0001575   0.0000376
   37  -0.0002663  -0.0000900   0.0000796  -0.0003514  -0.0001615   0.0000298
   38  -0.0001206  -0.0000498   0.0000302  -0.0000280  -0.0000544  -0.0000046
   39   0.0000070   0.0000013  -0.0000006   0.0001662   0.0000578  -0.0000982
   40   0.0000500   0.0000268  -0.0000016  -0.0000728  -0.0000721   0.0000249
   41   0.0000605   0.0000271  -0.0000034  -0.0000977  -0.0001070  -0.0000601
   42   0.0000210   0.0000116  -0.0000046   0.0001102   0.0000950  -0.0000973
   43  -0.0000128   0.0000244   0.0000377   0.0000470   0.0000571  -0.0000532
   44   0.0000172  -0.0000146  -0.0000295  -0.0000104  -0.0000345   0.0000121
   45   0.0000152  -0.0000228  -0.0000394  -0.0000638  -0.0000678   0.0000653
   46   0.0000076   0.0000005  -0.0000033  -0.0000145  -0.0000067   0.0000070
   47  -0.0000001   0.0000009   0.0000009   0.0000050   0.0000050   0.0000013
   48  -0.0000041  -0.0000002   0.0000026   0.0000079   0.0000038  -0.0000018
   49   0.0000857   0.0002008   0.0001973   0.0039228   0.0029434  -0.0022282
   50   0.0004615  -0.0002256  -0.0000696  -0.0067071  -0.0048094   0.0023295
   51   0.0003025  -0.0003815  -0.0001367  -0.0088485  -0.0058876   0.0029031
   52   0.0001215  -0.0001606  -0.0003097  -0.0000265  -0.0004229   0.0001400
   53  -0.0001991   0.0002513   0.0003577  -0.0017785  -0.0003762   0.0017289
   54  -0.0002075   0.0002855   0.0006096  -0.0004473   0.0005257   0.0001345
   55  -0.0001873   0.0003055   0.0002615  -0.0000900   0.0001259   0.0003341
   56   0.0002558  -0.0004068  -0.0004641  -0.0010077  -0.0010231   0.0007620
   57   0.0003167  -0.0005336  -0.0007136  -0.0018148  -0.0018415   0.0018326
   58   0.0000528  -0.0000311  -0.0001225   0.0008222   0.0002933  -0.0004485
   59  -0.0000480   0.0000777   0.0001539  -0.0009705  -0.0004732   0.0005763
   60  -0.0001012   0.0001094   0.0001942  -0.0013165  -0.0005085   0.0007938
   61  -0.0000023   0.0000066  -0.0000009   0.0000945   0.0000434  -0.0000552
   62   0.0000026  -0.0000093   0.0000010  -0.0001029  -0.0000429   0.0000571
   63   0.0000045  -0.0000114   0.0000006  -0.0001676  -0.0000734   0.0000992
   64   0.0000139   0.0000059  -0.0000112   0.0005947   0.0005794  -0.0003217
   65   0.0000102  -0.0000117   0.0000301  -0.0008123  -0.0006176   0.0002374
   66   0.0000286  -0.0000056   0.0000392  -0.0012844  -0.0009295   0.0004210
   67  -0.0000059   0.0000051  -0.0000007   0.0000578   0.0000117  -0.0000269
   68   0.0000081  -0.0000069   0.0000010  -0.0000747  -0.0000117   0.0000339
   69   0.0000107  -0.0000102   0.0000017  -0.0000850  -0.0000114   0.0000349
   70   0.0000208  -0.0000149   0.0001182  -0.0003658  -0.0002156  -0.0000923
   71   0.0000584  -0.0000313  -0.0000456   0.0006539   0.0004186  -0.0004131
   72   0.0000448  -0.0000456  -0.0001027   0.0008563   0.0005409  -0.0003858
   73   0.0000100  -0.0000089  -0.0000164  -0.0000128  -0.0000170   0.0000298
   74  -0.0000126   0.0000131   0.0000223   0.0000178   0.0000234  -0.0000421
   75  -0.0000182   0.0000167   0.0000306   0.0000240   0.0000310  -0.0000560
   76  -0.0000028   0.0000045   0.0000054  -0.0000055   0.0000128   0.0000302
   77   0.0000051  -0.0000049  -0.0000075   0.0000033  -0.0000199  -0.0000350
   78   0.0000075  -0.0000051  -0.0000099   0.0000035  -0.0000276  -0.0000408
   79  -0.0000408   0.0000268  -0.0000804   0.0000059  -0.0000067   0.0003211
   80  -0.0000172   0.0000284  -0.0000034  -0.0000746  -0.0000611   0.0000578
   81  -0.0000322   0.0000424  -0.0000093  -0.0001028  -0.0001083   0.0001964
   82   0.0000017  -0.0000019  -0.0000031  -0.0000003  -0.0000033  -0.0000048
   83  -0.0000027   0.0000027   0.0000040  -0.0000012   0.0000043   0.0000101
   84  -0.0000029   0.0000036   0.0000058   0.0000014   0.0000068   0.0000068
   85   0.0000159  -0.0000172   0.0000428   0.0000127   0.0000295  -0.0001984
   86  -0.0000020  -0.0000037  -0.0000218   0.0000138  -0.0000097   0.0000457
   87   0.0000251  -0.0000294   0.0000093   0.0000509   0.0000193  -0.0001816
   88  -0.0000115   0.0000306   0.0000292   0.0003052   0.0002255  -0.0001811
   89   0.0000017   0.0000118   0.0000032  -0.0002989  -0.0000997   0.0000160
   90  -0.0000032   0.0000126   0.0000126   0.0001968   0.0001289  -0.0000902
   91   0.0000027  -0.0000037  -0.0000041   0.0000238   0.0000002   0.0000098
   92   0.0000057  -0.0000167  -0.0000126   0.0000891   0.0000016   0.0000283
   93   0.0000008  -0.0000008  -0.0000013  -0.0000161  -0.0000123   0.0000115
   94  -0.0000513   0.0000459   0.0000712   0.0007711   0.0003776  -0.0001250
   95  -0.0000855   0.0000539   0.0000972   0.0011163   0.0006842  -0.0004366
   96   0.0000517  -0.0000272  -0.0000527  -0.0005778  -0.0003818   0.0003437
   97  -0.0000008   0.0000010   0.0000014   0.0000121   0.0000095  -0.0000098
   98  -0.0000010   0.0000032   0.0000028   0.0000151   0.0000156  -0.0000161
   99   0.0000001   0.0000001   0.0000001   0.0000015   0.0000009  -0.0000006
  100  -0.0000014   0.0000021   0.0000024   0.0000361   0.0000226  -0.0000114
  101  -0.0000027   0.0000016   0.0000028   0.0000445   0.0000270  -0.0000120
  102  -0.0000012   0.0000003   0.0000014   0.0000190   0.0000136  -0.0000106
  103   0.0000247  -0.0000154  -0.0000283  -0.0003959  -0.0002251   0.0001153
  104   0.0000137  -0.0000165  -0.0000230  -0.0002806  -0.0001776   0.0000922
  105   0.0000031  -0.0000036  -0.0000040  -0.0000101  -0.0000170   0.0000251
  106   0.0000002  -0.0000008  -0.0000009  -0.0000076  -0.0000065   0.0000060
  107   0.0000001  -0.0000012  -0.0000008  -0.0000065  -0.0000057   0.0000063
  108  -0.0000001   0.0000001   0.0000001  -0.0000004  -0.0000003   0.0000001
  109  -0.0000002   0.0000002   0.0000003   0.0000001   0.0000009  -0.0000008
  110  -0.0000001   0.0000002   0.0000002   0.0000000   0.0000007  -0.0000007
  111  -0.0000000   0.0000001   0.0000001  -0.0000004   0.0000001  -0.0000000
  112   0.0000003  -0.0000011  -0.0000007  -0.0000048  -0.0000053   0.0000053
  113   0.0000007  -0.0000009  -0.0000011  -0.0000134  -0.0000106   0.0000081
  114   0.0000003  -0.0000001  -0.0000004  -0.0000022  -0.0000028   0.0000031
  115  -0.0000033  -0.0000021   0.0000003   0.0000030  -0.0000076   0.0000093
  116   0.0000020  -0.0000004  -0.0000023  -0.0000587  -0.0000355   0.0000212
  117  -0.0000012  -0.0000005  -0.0000001  -0.0000056  -0.0000088   0.0000076
  118  -0.0000007  -0.0000008   0.0000003   0.0000187   0.0000075  -0.0000006
  119   0.0000008   0.0000008  -0.0000003  -0.0000263  -0.0000110  -0.0000024
  120   0.0000006   0.0000010  -0.0000001  -0.0000273  -0.0000121  -0.0000016
  121  -0.0000005   0.0000000   0.0000003   0.0000079   0.0000034  -0.0000010
  122  -0.0000002   0.0000001   0.0000002   0.0000084   0.0000036  -0.0000014
  123  -0.0000002  -0.0000003   0.0000001   0.0000036   0.0000019  -0.0000005
  124  -0.0000000  -0.0000000   0.0000000   0.0000004   0.0000002  -0.0000002
  125   0.0000000  -0.0000000  -0.0000000  -0.0000005  -0.0000003   0.0000003
  126   0.0000000   0.0000000  -0.0000000  -0.0000003  -0.0000002   0.0000002
  127   0.0000000  -0.0000000  -0.0000000  -0.0000006  -0.0000004   0.0000002
  128   0.0000000   0.0000000  -0.0000000  -0.0000001  -0.0000000   0.0000000
  129  -0.0000000  -0.0000000   0.0000000   0.0000002   0.0000001  -0.0000002
  130   0.0000002  -0.0000001  -0.0000001  -0.0000052  -0.0000026   0.0000002
  131   0.0000003  -0.0000001  -0.0000002  -0.0000056  -0.0000029   0.0000007
  132  -0.0000001  -0.0000000   0.0000000  -0.0000003  -0.0000002  -0.0000004
  133   0.0000000  -0.0000002  -0.0000001  -0.0000005  -0.0000007   0.0000006
  134   0.0000001  -0.0000002  -0.0000002  -0.0000017  -0.0000015   0.0000014
  135   0.0000000  -0.0000000  -0.0000000  -0.0000002  -0.0000002   0.0000002
  136   0.0000011   0.0000011   0.0000000  -0.0000079   0.0000124  -0.0000119
  137  -0.0000004  -0.0000003   0.0000001   0.0000017  -0.0000084   0.0000075
  138   0.0000003   0.0000006   0.0000003  -0.0000022   0.0000004  -0.0000023
           13          14          15          16          17          18
    1  -0.0021954  -0.0009992   0.0007590   0.0708882   0.0029474  -0.0369814
    2  -0.0010362  -0.0008370  -0.0008441   0.0619059   0.0073383  -0.0290194
    3   0.0003574  -0.0008314  -0.0002067  -0.0041278   0.0021087   0.0044247
    4  -0.0008043  -0.0003316   0.0000043   0.0070503  -0.0022665  -0.0060974
    5  -0.0015085  -0.0007529   0.0004182   0.0101718  -0.0036054  -0.0091925
    6   0.0000028   0.0001558   0.0000005   0.0001788  -0.0002622  -0.0002477
    7   0.0000490  -0.0000754   0.0002209  -0.0007146  -0.0009855  -0.0005003
    8   0.0005679   0.0003147  -0.0001026  -0.0007944   0.0001302   0.0005499
    9   0.0005350   0.0003664  -0.0002251  -0.0002465   0.0000569   0.0001611
   10   0.0024186   0.0014920  -0.0025658  -0.0018155   0.0133904   0.0135984
   11   0.0007625   0.0010114  -0.0013254  -0.0009378   0.0087106   0.0084957
   12  -0.0023441  -0.0016747   0.0027127   0.0014172  -0.0061918  -0.0064436
   13  -0.0717237  -0.0439677   0.0151616   0.0478772   0.0663655   0.0362139
   14  -0.0439677  -0.0316098   0.0100692   0.0284156   0.0462139   0.0269914
   15   0.0151616   0.0100692  -0.0090946  -0.0114964  -0.0092254  -0.0011111
   16   0.0478772   0.0284156  -0.0114964  -0.4144862   0.1195815   0.3406644
   17   0.0663655   0.0462139  -0.0092254   0.1195815  -0.4353991  -0.4651134
   18   0.0362139   0.0269914  -0.0011111   0.3406644  -0.4651134  -0.6376510
   19   0.0001159   0.0000737  -0.0000309   0.0000551  -0.0002228  -0.0002466
   20  -0.0001538  -0.0000980   0.0000402  -0.0001874   0.0002459   0.0003505
   21  -0.0002193  -0.0001392   0.0000572  -0.0001989   0.0003945   0.0004996
   22  -0.0000485  -0.0000242  -0.0000074   0.0005871  -0.0002339  -0.0005387
   23  -0.0000302  -0.0000222   0.0000052   0.0002716   0.0000240  -0.0001222
   24  -0.0000159  -0.0000031   0.0000026   0.0001388  -0.0000879  -0.0001551
   25   0.0000102   0.0000139   0.0001025  -0.0012762   0.0006129   0.0013330
   26  -0.0000017  -0.0000186   0.0000791  -0.0010680   0.0007245   0.0013123
   27   0.0000900   0.0000440   0.0000143  -0.0004452  -0.0000585   0.0001832
   28  -0.0008972  -0.0005866  -0.0000100   0.0006867   0.0017027   0.0014118
   29  -0.0001607  -0.0000635  -0.0000594   0.0001855   0.0007038   0.0006448
   30   0.0005014   0.0003499  -0.0000498  -0.0006819  -0.0010868  -0.0007093
   31   0.0011479   0.0005968   0.0000647  -0.0058292   0.0001770   0.0029097
   32   0.0005406   0.0002811   0.0001592  -0.0048160   0.0012648   0.0034761
   33  -0.0000271   0.0000279   0.0000670  -0.0008981   0.0005864   0.0009923
   34   0.0003811   0.0001913  -0.0002536   0.0002768  -0.0027586  -0.0027003
   35   0.0001245   0.0000769  -0.0001221   0.0003803  -0.0016063  -0.0016955
   36   0.0000101   0.0000240   0.0000100  -0.0002621   0.0005979   0.0006911
   37   0.0072100   0.0045118  -0.0006914  -0.0016536  -0.0036972  -0.0026263
   38   0.0033832   0.0025423  -0.0001780  -0.0015169  -0.0016187  -0.0007429
   39  -0.0006000  -0.0002729   0.0005309  -0.0007792   0.0005908   0.0009660
   40   0.0023659   0.0013638  -0.0001722   0.0014475  -0.0004781  -0.0012104
   41   0.0013593   0.0013089  -0.0001522   0.0023348  -0.0001833  -0.0014841
   42  -0.0001660  -0.0000841   0.0005186   0.0002395  -0.0000064  -0.0000923
   43  -0.0005496  -0.0002634   0.0000410   0.0075019  -0.0038893  -0.0062839
   44   0.0001053  -0.0000685   0.0000537  -0.0026093   0.0037552   0.0048064
   45   0.0005560   0.0002647  -0.0001185  -0.0056773   0.0040485   0.0073318
   46  -0.0000042  -0.0000030  -0.0000029  -0.0000127   0.0000429   0.0000465
   47   0.0000175   0.0000099  -0.0000013   0.0000676  -0.0000511  -0.0000856
   48   0.0000253   0.0000157  -0.0000034   0.0000625  -0.0000539  -0.0000873
   49   0.0013006   0.0010126   0.0003552   0.1827188  -0.0297677  -0.1242563
   50  -0.0080445  -0.0074403   0.0024157  -0.0488326   0.1492473   0.1528650
   51  -0.0172422  -0.0139714   0.0055918  -0.1058651   0.1576800   0.2213940
   52   0.0073908   0.0032931   0.0003024  -0.0093280  -0.0321328  -0.0262751
   53  -0.0049855   0.0001053  -0.0042518  -0.0129300   0.0284301   0.0456857
   54  -0.0122150  -0.0050216  -0.0010168  -0.0047424   0.0503509   0.0540445
   55   0.0058368   0.0053916  -0.0023790   0.0613079  -0.0792126  -0.1109331
   56  -0.0157428  -0.0124034   0.0030658  -0.0939496   0.1160128   0.1565661
   57  -0.0240045  -0.0185163   0.0033591  -0.1211210   0.1608364   0.2109068
   58  -0.0019116  -0.0015360   0.0007769   0.0351404  -0.0282548  -0.0474827
   59   0.0002316   0.0002625  -0.0005973  -0.0295444   0.0536623   0.0661183
   60   0.0003750   0.0008125  -0.0012128  -0.0537722   0.0626096   0.0889034
   61   0.0000319  -0.0000456   0.0001107   0.0049951  -0.0055175  -0.0081993
   62  -0.0000247   0.0000799  -0.0001326  -0.0066783   0.0066791   0.0102496
   63  -0.0001191   0.0000357  -0.0001747  -0.0063215   0.0118502   0.0140910
   64   0.0023281   0.0019329  -0.0007207   0.0423848  -0.0440554  -0.0633449
   65   0.0012466   0.0002571   0.0007529  -0.0538323   0.0641618   0.0901018
   66   0.0005773  -0.0002775   0.0007562  -0.0685001   0.0892389   0.1210321
   67   0.0005435   0.0002044   0.0001013   0.0025784  -0.0050288  -0.0063473
   68  -0.0007275  -0.0002492  -0.0001558  -0.0027539   0.0067087   0.0084991
   69  -0.0008280  -0.0002640  -0.0002143  -0.0075354   0.0074922   0.0109379
   70  -0.0004511  -0.0003753   0.0005539  -0.0367631   0.0413477   0.0583124
   71   0.0026473   0.0017046  -0.0002016   0.0442855  -0.0610915  -0.0823853
   72   0.0034376   0.0021077  -0.0003149   0.0618060  -0.0811348  -0.1106173
   73   0.0000546  -0.0000283  -0.0000093   0.0018682  -0.0024521  -0.0035302
   74  -0.0001805  -0.0000386   0.0000412  -0.0023464   0.0036183   0.0048660
   75  -0.0000256   0.0000960   0.0000178  -0.0031638   0.0048391   0.0065792
   76   0.0002537   0.0002628  -0.0001616   0.0036750  -0.0048471  -0.0064186
   77  -0.0002799  -0.0003151   0.0002077  -0.0050691   0.0066965   0.0089510
   78  -0.0003456  -0.0004119   0.0002711  -0.0073205   0.0087317   0.0120780
   79  -0.0014938  -0.0011082  -0.0002956   0.0006987  -0.0010520  -0.0006558
   80   0.0004459   0.0003763  -0.0001927  -0.0004378   0.0015465   0.0017421
   81  -0.0004980  -0.0002600  -0.0002196  -0.0027956   0.0006663   0.0025607
   82   0.0000260   0.0000151   0.0000086  -0.0002282   0.0001531   0.0002222
   83  -0.0000418  -0.0000175  -0.0000243   0.0001537  -0.0003064  -0.0003168
   84  -0.0000061   0.0000025  -0.0000205   0.0004553  -0.0002555  -0.0004362
   85   0.0009852   0.0007207   0.0001357   0.0000820   0.0009737   0.0004862
   86  -0.0005582  -0.0004506   0.0000545   0.0001071  -0.0011209  -0.0010181
   87   0.0003804   0.0001572   0.0002978   0.0019789  -0.0002600  -0.0017739
   88  -0.0001780  -0.0000848   0.0001051   0.0002655  -0.0009907  -0.0010740
   89   0.0001330   0.0001586  -0.0000047  -0.0000799  -0.0003070  -0.0002821
   90  -0.0000751  -0.0000560   0.0000513   0.0000770  -0.0004615  -0.0004691
   91  -0.0000333  -0.0000241  -0.0000043   0.0000912   0.0001187   0.0000575
   92  -0.0000534  -0.0000876  -0.0000170  -0.0000359   0.0003573   0.0003785
   93  -0.0000008   0.0000041  -0.0000061   0.0000314   0.0000610   0.0000368
   94  -0.0001203  -0.0000514   0.0000395   0.0004684  -0.0001819  -0.0004291
   95  -0.0005382  -0.0002724   0.0002618   0.0010528  -0.0019210  -0.0023792
   96   0.0004697   0.0002375  -0.0002515  -0.0008702   0.0012877   0.0016911
   97  -0.0000021  -0.0000027   0.0000059  -0.0000122  -0.0000568  -0.0000436
   98   0.0000012   0.0000059   0.0000075   0.0000185  -0.0000823  -0.0000899
   99  -0.0000026  -0.0000022  -0.0000001  -0.0000200  -0.0000093   0.0000036
  100  -0.0000023   0.0000044   0.0000042   0.0000185  -0.0001262  -0.0001312
  101   0.0000027   0.0000103   0.0000035   0.0000825  -0.0001582  -0.0001960
  102   0.0000030  -0.0000009   0.0000032  -0.0000275  -0.0000902  -0.0000638
  103   0.0000870   0.0000089  -0.0000461  -0.0006159   0.0008689   0.0011533
  104   0.0000870   0.0000248  -0.0000388  -0.0003264   0.0006716   0.0008196
  105   0.0000440   0.0000395  -0.0000231  -0.0000360  -0.0000583  -0.0000245
  106   0.0000025   0.0000016  -0.0000037  -0.0000089   0.0000336   0.0000360
  107   0.0000033   0.0000002  -0.0000043   0.0000008   0.0000325   0.0000303
  108  -0.0000013   0.0000002   0.0000007  -0.0000065   0.0000039   0.0000057
  109   0.0000012   0.0000018   0.0000002   0.0000048  -0.0000064  -0.0000092
  110   0.0000007   0.0000011   0.0000002  -0.0000027  -0.0000088  -0.0000068
  111   0.0000004   0.0000005  -0.0000001   0.0000031   0.0000006  -0.0000015
  112   0.0000010  -0.0000023  -0.0000026  -0.0000063   0.0000408   0.0000432
  113  -0.0000085  -0.0000059  -0.0000025  -0.0000036   0.0000607   0.0000581
  114  -0.0000004   0.0000002  -0.0000015   0.0000249   0.0000362   0.0000179
  115   0.0000074   0.0000027  -0.0000001   0.0000298   0.0000506   0.0000369
  116   0.0000306   0.0000192  -0.0000064  -0.0001184   0.0001809   0.0002322
  117   0.0000092   0.0000052  -0.0000046  -0.0000098   0.0000755   0.0000750
  118   0.0000015   0.0000084  -0.0000067   0.0000678  -0.0000894  -0.0001234
  119  -0.0000105  -0.0000117   0.0000060  -0.0001351   0.0001871   0.0002453
  120  -0.0000119  -0.0000157   0.0000067  -0.0001218   0.0002451   0.0002841
  121  -0.0000029  -0.0000021   0.0000016  -0.0000164  -0.0000052   0.0000044
  122   0.0000028   0.0000013   0.0000008   0.0000035   0.0000118   0.0000089
  123   0.0000002  -0.0000020   0.0000003   0.0000013  -0.0000056  -0.0000043
  124  -0.0000002  -0.0000003   0.0000001  -0.0000085  -0.0000044   0.0000011
  125   0.0000002   0.0000003  -0.0000000   0.0000035   0.0000024   0.0000000
  126   0.0000000   0.0000002  -0.0000000   0.0000043   0.0000024  -0.0000004
  127  -0.0000003  -0.0000004   0.0000000  -0.0000021   0.0000005   0.0000017
  128   0.0000003   0.0000004  -0.0000001   0.0000012  -0.0000009  -0.0000014
  129  -0.0000004  -0.0000006   0.0000001  -0.0000088  -0.0000032   0.0000024
  130  -0.0000016  -0.0000023  -0.0000002  -0.0000193   0.0000161   0.0000262
  131   0.0000000  -0.0000003  -0.0000004  -0.0000034   0.0000162   0.0000170
  132  -0.0000016  -0.0000019   0.0000003  -0.0000132  -0.0000016   0.0000067
  133  -0.0000002  -0.0000006  -0.0000003  -0.0000095   0.0000021   0.0000080
  134   0.0000000  -0.0000003  -0.0000005   0.0000029   0.0000122   0.0000097
  135   0.0000000  -0.0000001  -0.0000001  -0.0000023   0.0000007   0.0000021
  136  -0.0000071  -0.0000043   0.0000057   0.0000405  -0.0001124  -0.0001279
  137  -0.0000047  -0.0000034  -0.0000010  -0.0000169   0.0000534   0.0000594
  138   0.0000006  -0.0000005  -0.0000001  -0.0000163  -0.0000259  -0.0000143
           19          20          21          22          23          24
    1  -0.0000355   0.0000696   0.0000917  -0.0001389  -0.0001165  -0.0000210
    2  -0.0000345   0.0000699   0.0000901  -0.0001253  -0.0001251   0.0000029
    3   0.0000061  -0.0000108  -0.0000128  -0.0000052   0.0000002  -0.0000042
    4   0.0000052  -0.0000045  -0.0000065  -0.0000031   0.0000426  -0.0000049
    5   0.0000098  -0.0000140  -0.0000172  -0.0000065   0.0000633  -0.0000380
    6   0.0000030  -0.0000043  -0.0000058   0.0000175   0.0000011   0.0000056
    7   0.0000193  -0.0000317  -0.0000436   0.0000060  -0.0000004   0.0000004
    8  -0.0000250   0.0000348   0.0000470   0.0000001  -0.0000055   0.0000050
    9  -0.0000356   0.0000525   0.0000730  -0.0000070  -0.0000058   0.0000012
   10  -0.0000428   0.0000660   0.0000905  -0.0000295  -0.0000054  -0.0000097
   11  -0.0000252   0.0000384   0.0000528  -0.0000160  -0.0000031  -0.0000094
   12   0.0000264  -0.0000414  -0.0000562   0.0000188   0.0000015  -0.0000004
   13   0.0001159  -0.0001538  -0.0002193  -0.0000485  -0.0000302  -0.0000159
   14   0.0000737  -0.0000980  -0.0001392  -0.0000242  -0.0000222  -0.0000031
   15  -0.0000309   0.0000402   0.0000572  -0.0000074   0.0000052   0.0000026
   16   0.0000551  -0.0001874  -0.0001989   0.0005871   0.0002716   0.0001388
   17  -0.0002228   0.0002459   0.0003945  -0.0002339   0.0000240  -0.0000879
   18  -0.0002466   0.0003505   0.0004996  -0.0005387  -0.0001222  -0.0001551
   19  -0.0000136   0.0000187   0.0000260  -0.0000011  -0.0000011  -0.0000000
   20   0.0000187  -0.0000278  -0.0000381   0.0000018   0.0000017   0.0000001
   21   0.0000260  -0.0000381  -0.0000527   0.0000024   0.0000022   0.0000002
   22  -0.0000011   0.0000018   0.0000024  -0.0000342  -0.0000228  -0.0000111
   23  -0.0000011   0.0000017   0.0000022  -0.0000228  -0.0000315  -0.0000024
   24  -0.0000000   0.0000001   0.0000002  -0.0000111  -0.0000024  -0.0000095
   25   0.0000009  -0.0000027  -0.0000034   0.0000096   0.0000021   0.0000025
   26   0.0000003  -0.0000017  -0.0000022   0.0000124  -0.0000007   0.0000073
   27   0.0000009  -0.0000018  -0.0000023  -0.0000006   0.0000005   0.0000016
   28   0.0000035  -0.0000032  -0.0000060  -0.0000111  -0.0000103  -0.0000039
   29  -0.0000020   0.0000036   0.0000041  -0.0000039  -0.0000011  -0.0000019
   30  -0.0000017   0.0000013   0.0000026   0.0000036   0.0000034   0.0000010
   31  -0.0000304   0.0000435   0.0000604   0.0000351   0.0000226   0.0000047
   32  -0.0000262   0.0000367   0.0000513   0.0000263   0.0000181  -0.0000001
   33  -0.0000068   0.0000094   0.0000132   0.0000050   0.0000028  -0.0000021
   34   0.0000019  -0.0000047  -0.0000054   0.0000018  -0.0000021   0.0000026
   35   0.0000027  -0.0000044  -0.0000057   0.0000018  -0.0000011   0.0000011
   36   0.0000000   0.0000009   0.0000007  -0.0000011   0.0000001  -0.0000005
   37   0.0000167  -0.0000258  -0.0000334  -0.0000035  -0.0000026  -0.0000023
   38   0.0000067  -0.0000102  -0.0000133   0.0000005  -0.0000012  -0.0000002
   39  -0.0000002   0.0000010   0.0000008   0.0000019  -0.0000001   0.0000008
   40   0.0000000   0.0000009   0.0000003   0.0000034   0.0000039   0.0000003
   41  -0.0000007   0.0000029   0.0000023   0.0000031   0.0000042  -0.0000002
   42  -0.0000013   0.0000022   0.0000028   0.0000013  -0.0000004   0.0000007
   43   0.0000091  -0.0000130  -0.0000176  -0.0000152  -0.0000083   0.0000008
   44  -0.0000072   0.0000107   0.0000147   0.0000087   0.0000067  -0.0000010
   45  -0.0000092   0.0000132   0.0000183   0.0000142   0.0000102  -0.0000010
   46  -0.0000003   0.0000005   0.0000006   0.0000003   0.0000003   0.0000001
   47   0.0000002  -0.0000002  -0.0000003  -0.0000003  -0.0000000  -0.0000003
   48   0.0000002  -0.0000004  -0.0000005  -0.0000004  -0.0000003  -0.0000001
   49  -0.0000456   0.0002062   0.0001800  -0.0001942  -0.0000911  -0.0000112
   50   0.0001771  -0.0001570  -0.0002865   0.0001990  -0.0000210   0.0000645
   51   0.0001923  -0.0002664  -0.0003761   0.0002001  -0.0000277   0.0000332
   52  -0.0000844   0.0001104   0.0001668   0.0000050   0.0000170  -0.0000398
   53   0.0000744  -0.0002074  -0.0002266  -0.0000776  -0.0000208   0.0000066
   54   0.0001747  -0.0001999  -0.0003195  -0.0000084  -0.0000371   0.0000749
   55   0.0000474  -0.0001345  -0.0001323  -0.0000966  -0.0000483  -0.0000214
   56  -0.0000914   0.0001602   0.0002021   0.0001911   0.0001094   0.0000437
   57  -0.0001589   0.0001852   0.0002863   0.0002655   0.0001709   0.0000588
   58  -0.0000358   0.0000481   0.0000745   0.0000245   0.0000160   0.0000122
   59   0.0000534  -0.0000684  -0.0001055   0.0000228  -0.0000051   0.0000138
   60   0.0000619  -0.0001011  -0.0001372   0.0000080  -0.0000094   0.0000017
   61  -0.0000015   0.0000030   0.0000041  -0.0000032  -0.0000011  -0.0000012
   62   0.0000017  -0.0000035  -0.0000048   0.0000042   0.0000016   0.0000015
   63   0.0000023  -0.0000049  -0.0000069   0.0000054   0.0000022   0.0000021
   64  -0.0000209   0.0000218   0.0000291  -0.0001076  -0.0000413  -0.0000237
   65   0.0000175  -0.0000331  -0.0000427   0.0000427   0.0000176  -0.0000072
   66   0.0000321  -0.0000398  -0.0000572   0.0000891   0.0000287  -0.0000002
   67  -0.0000005   0.0000006   0.0000014  -0.0000126  -0.0000057  -0.0000045
   68   0.0000004  -0.0000008  -0.0000016   0.0000166   0.0000078   0.0000060
   69   0.0000009  -0.0000010  -0.0000022   0.0000244   0.0000109   0.0000082
   70   0.0000557   0.0000046  -0.0000471   0.0000433  -0.0000003   0.0000135
   71   0.0000003   0.0000596   0.0000514  -0.0000049  -0.0000171   0.0000095
   72  -0.0000371   0.0000543   0.0000752  -0.0000714  -0.0000288  -0.0000141
   73  -0.0000035   0.0000050   0.0000071   0.0000013   0.0000004   0.0000001
   74   0.0000046  -0.0000070  -0.0000097  -0.0000024  -0.0000008  -0.0000004
   75   0.0000066  -0.0000093  -0.0000133  -0.0000023  -0.0000007  -0.0000002
   76   0.0000016  -0.0000028  -0.0000036  -0.0000042  -0.0000029   0.0000000
   77  -0.0000023   0.0000038   0.0000049   0.0000056   0.0000040  -0.0000002
   78  -0.0000031   0.0000049   0.0000065   0.0000074   0.0000054  -0.0000004
   79  -0.0000522  -0.0000366   0.0000146  -0.0000216   0.0000211  -0.0000141
   80  -0.0000050  -0.0000159  -0.0000077  -0.0000194  -0.0000092  -0.0000088
   81  -0.0000101  -0.0000253  -0.0000098  -0.0000205  -0.0000042  -0.0000109
   82  -0.0000009   0.0000012   0.0000017  -0.0000002   0.0000002  -0.0000004
   83   0.0000011  -0.0000018  -0.0000023   0.0000002  -0.0000001   0.0000004
   84   0.0000017  -0.0000022  -0.0000031   0.0000004  -0.0000004   0.0000006
   85   0.0000245   0.0000166  -0.0000087   0.0000091  -0.0000116   0.0000076
   86  -0.0000098  -0.0000015   0.0000075  -0.0000019   0.0000045  -0.0000023
   87   0.0000129   0.0000210   0.0000055   0.0000108  -0.0000051   0.0000064
   88   0.0000047  -0.0000072  -0.0000100   0.0000017  -0.0000002   0.0000009
   89   0.0000002  -0.0000004  -0.0000006   0.0000020  -0.0000024  -0.0000001
   90   0.0000021  -0.0000032  -0.0000044   0.0000010   0.0000003   0.0000008
   91  -0.0000007   0.0000011   0.0000014  -0.0000003   0.0000003   0.0000000
   92  -0.0000019   0.0000028   0.0000039  -0.0000009   0.0000014   0.0000000
   93  -0.0000002   0.0000004   0.0000005  -0.0000003  -0.0000001  -0.0000002
   94   0.0000120  -0.0000175  -0.0000248  -0.0000021   0.0000066   0.0000007
   95   0.0000154  -0.0000229  -0.0000316   0.0000016   0.0000058   0.0000026
   96  -0.0000078   0.0000120   0.0000166  -0.0000024  -0.0000010  -0.0000015
   97   0.0000002  -0.0000004  -0.0000005  -0.0000000  -0.0000001   0.0000000
   98   0.0000004  -0.0000006  -0.0000009   0.0000002  -0.0000001   0.0000001
   99   0.0000000  -0.0000000  -0.0000000   0.0000000   0.0000000   0.0000000
  100   0.0000003  -0.0000005  -0.0000007   0.0000002   0.0000004   0.0000002
  101   0.0000004  -0.0000007  -0.0000009  -0.0000001   0.0000005   0.0000001
  102   0.0000003  -0.0000004  -0.0000006   0.0000001   0.0000001   0.0000001
  103  -0.0000041   0.0000064   0.0000088   0.0000007  -0.0000024  -0.0000008
  104  -0.0000032   0.0000049   0.0000067  -0.0000019  -0.0000015  -0.0000012
  105  -0.0000007   0.0000011   0.0000015  -0.0000011   0.0000011   0.0000004
  106  -0.0000002   0.0000002   0.0000003   0.0000000   0.0000000  -0.0000000
  107  -0.0000001   0.0000002   0.0000003  -0.0000001   0.0000001  -0.0000000
  108  -0.0000000   0.0000000   0.0000000   0.0000001  -0.0000000   0.0000000
  109   0.0000000  -0.0000001  -0.0000001   0.0000000  -0.0000000  -0.0000000
  110   0.0000000  -0.0000000  -0.0000001   0.0000000  -0.0000000  -0.0000000
  111   0.0000000  -0.0000000  -0.0000000   0.0000000  -0.0000000  -0.0000000
  112  -0.0000001   0.0000001   0.0000002  -0.0000001   0.0000000  -0.0000000
  113  -0.0000002   0.0000003   0.0000004   0.0000000  -0.0000000  -0.0000000
  114  -0.0000001   0.0000001   0.0000001  -0.0000000   0.0000000  -0.0000000
  115  -0.0000000   0.0000000   0.0000000  -0.0000009  -0.0000005  -0.0000006
  116  -0.0000005   0.0000007   0.0000010  -0.0000004  -0.0000006  -0.0000003
  117  -0.0000001   0.0000001   0.0000002  -0.0000003  -0.0000004  -0.0000003
  118   0.0000001  -0.0000001  -0.0000001  -0.0000007   0.0000009   0.0000007
  119  -0.0000001   0.0000001   0.0000002   0.0000019  -0.0000005  -0.0000002
  120  -0.0000000   0.0000001   0.0000001   0.0000010  -0.0000007  -0.0000002
  121   0.0000000  -0.0000000  -0.0000000   0.0000000  -0.0000000  -0.0000000
  122   0.0000000  -0.0000000  -0.0000000  -0.0000001  -0.0000000  -0.0000001
  123   0.0000000  -0.0000000  -0.0000001  -0.0000001  -0.0000000  -0.0000000
  124   0.0000000  -0.0000000  -0.0000000   0.0000000   0.0000000   0.0000000
  125  -0.0000000   0.0000000   0.0000000  -0.0000000  -0.0000000  -0.0000000
  126  -0.0000000   0.0000000   0.0000000  -0.0000000  -0.0000000  -0.0000000
  127  -0.0000000   0.0000000   0.0000000  -0.0000000  -0.0000000  -0.0000000
  128  -0.0000000   0.0000000   0.0000000  -0.0000000   0.0000000  -0.0000000
  129   0.0000000  -0.0000000  -0.0000000   0.0000000  -0.0000000   0.0000000
  130  -0.0000000   0.0000000   0.0000000   0.0000000  -0.0000001  -0.0000000
  131  -0.0000000   0.0000000   0.0000001   0.0000001  -0.0000001   0.0000000
  132   0.0000000  -0.0000000  -0.0000000   0.0000000  -0.0000000  -0.0000000
  133  -0.0000000   0.0000000   0.0000000  -0.0000000  -0.0000000  -0.0000000
  134  -0.0000000   0.0000001   0.0000001  -0.0000000  -0.0000000  -0.0000000
  135  -0.0000000   0.0000000   0.0000000  -0.0000000  -0.0000000  -0.0000000
  136   0.0000000  -0.0000000  -0.0000000   0.0000004  -0.0000004   0.0000001
  137   0.0000000  -0.0000000  -0.0000000  -0.0000001   0.0000003  -0.0000000
  138   0.0000000  -0.0000001  -0.0000001   0.0000000  -0.0000001   0.0000000
           25          26          27          28          29          30
    1   0.0001681   0.0000830   0.0001199   0.0013456   0.0006863  -0.0000098
    2   0.0003971   0.0002296   0.0001522   0.0009421   0.0009898  -0.0000454
    3   0.0000130   0.0000095   0.0000178  -0.0001449  -0.0000355   0.0002693
    4   0.0003572   0.0003145   0.0000920  -0.0001032  -0.0000729   0.0000935
    5   0.0001095   0.0001468   0.0000195  -0.0001166  -0.0001423   0.0000492
    6   0.0000441   0.0000126   0.0000453   0.0000103   0.0000272  -0.0000108
    7  -0.0000479  -0.0000164  -0.0000092   0.0000607   0.0000196  -0.0000301
    8  -0.0000239  -0.0000106   0.0000022   0.0000452   0.0000000  -0.0000191
    9   0.0000034   0.0000031  -0.0000031   0.0000081  -0.0000079  -0.0000016
   10   0.0001693   0.0001463   0.0000447  -0.0000888  -0.0001348   0.0000759
   11   0.0001017   0.0001022   0.0000440  -0.0000580  -0.0000880   0.0000442
   12  -0.0001099  -0.0000767  -0.0000231   0.0000279   0.0000688  -0.0000243
   13   0.0000102  -0.0000017   0.0000900  -0.0008972  -0.0001607   0.0005014
   14   0.0000139  -0.0000186   0.0000440  -0.0005866  -0.0000635   0.0003499
   15   0.0001025   0.0000791   0.0000143  -0.0000100  -0.0000594  -0.0000498
   16  -0.0012762  -0.0010680  -0.0004452   0.0006867   0.0001855  -0.0006819
   17   0.0006129   0.0007245  -0.0000585   0.0017027   0.0007038  -0.0010868
   18   0.0013330   0.0013123   0.0001832   0.0014118   0.0006448  -0.0007093
   19   0.0000009   0.0000003   0.0000009   0.0000035  -0.0000020  -0.0000017
   20  -0.0000027  -0.0000017  -0.0000018  -0.0000032   0.0000036   0.0000013
   21  -0.0000034  -0.0000022  -0.0000023  -0.0000060   0.0000041   0.0000026
   22   0.0000096   0.0000124  -0.0000006  -0.0000111  -0.0000039   0.0000036
   23   0.0000021  -0.0000007   0.0000005  -0.0000103  -0.0000011   0.0000034
   24   0.0000025   0.0000073   0.0000016  -0.0000039  -0.0000019   0.0000010
   25  -0.0002995  -0.0002691  -0.0000765   0.0000389   0.0000153  -0.0000260
[...]
    2      C       0.2149831466    -3.1162096710    -0.9404322540
    3      C      -0.6279121441    -3.0309405891     0.3362806738
    4      C      -0.8060879143    -1.6091337328     0.9149049602
    5      C       0.5453297106    -0.8577894710     0.9480926580
    6      C       1.3543086807    -0.9177393081    -0.3632479737
    7      H      -1.6007561327    -3.4860807051     0.1762020689
    8      H      -0.3310848846    -2.7159641795    -1.7888897053
    9      H       0.3984273694    -4.1620644383    -1.1725394274
   10      H       2.1602937475    -2.9000095142    -0.0559353655
   11      H       2.1014545234    -2.4196299155    -1.7304550346
   12      H      -1.0878880292    -1.7471521476     1.9539514517
   13      H       0.3789338116     0.1766201123     1.2318529737
   14      H       1.1481337003    -1.3018045984     1.7381524273
   15      H       0.7752161119    -0.4238786348    -1.1382738595
   16      H      -0.1314451150    -3.6273492740     1.1001899251
   17      C       2.6587561283    -0.1616742558    -0.2495317019
   18      C       2.8830955206     1.0449463786    -1.0179154007
   19      C       3.7174905411    -0.5849070364     0.6347694148
   20      C       4.0347601060     1.7534927767    -0.9295615668
   21      H       2.1029188778     1.3824665525    -1.6779294937
   22      C       4.8811169489     0.0996555140     0.7473005435
   23      H       3.5784645382    -1.4735464513     1.2241255638
   24      C       5.0947449682     1.3109256442    -0.0405206231
   25      H       4.1788632199     2.6464927914    -1.5110873809
   26      H       5.6658841177    -0.2187860250     1.4045716118
   27      C       6.3287937066     2.0426909434     0.0696135792
   28      H       6.4194991922     2.9385360766    -0.5476213672
   29      O       7.2367408063     1.7077053009     0.7990386082
   30      C      -2.9179313506    -0.3104585867     1.1425463596
   31      C      -4.0100081943     0.4638484825     0.6700418802
   32      C      -1.9502553479    -0.7975196728     0.3131257594
   33      C      -5.0107582351     0.9666589482     1.5440384502
   34      C      -4.1072137925     0.7418091631    -0.7048354540
   35      C      -2.0683131473    -0.5055374080    -1.0776708884
   36      C      -6.0445532405     1.7042879624     1.0624341340
   37      H      -4.9377248844     0.7544404094     2.5967372912
   38      C      -5.1985665660     1.5147769410    -1.1813425615
   39      C      -3.1008419617     0.2306592508    -1.5630709006
   40      H      -1.3346987423    -0.8717714031    -1.7674265203
   41      C      -6.1409245303     1.9834192571    -0.3229485232
   42      H      -6.7976444221     2.0813588691     1.7316641600
   43      H      -5.2682910749     1.7241529627    -2.2349310849
   44      H      -3.1647151931     0.4333721720    -2.6185432006
   45      H      -6.9656155401     2.5686578555    -0.6895181838
   46      H      -2.8663327110    -0.5123998957     2.1991100952
 ----------------------------------------------------------------
 Nuclear Repulsion Energy =  1833.6481605862 hartrees
 There are       84 alpha and       84 beta electrons
 Requested basis set is 6-31G(d,p)
 There are 162 shells and 470 basis functions

Total QAlloc Memory Limit  20000 MB
Mega-Array Size      4888 MB
MEM_STATIC part      5000 MB
 A cutoff of  1.0D-12 yielded   7378 shell pairs
 There are     63263 function pairs
 Smallest overlap matrix eigenvalue = 2.64E-04

  Scale SEOQF with 1.000000e-02/1.000000e-01/1.000000e-01

 Standard Electronic Orientation quadrupole field applied
 Nucleus-field energy     =     0.0000000227 hartrees
 Guess MOs from SCF MO coefficient file
Reading MOs from coefficient file
Reading MOs from coefficient file
 A restricted Hartree-Fock SCF calculation will be
 performed using Pulay DIIS extrapolation
 SCF converges when DIIS error is below 1.0E-10
 ---------------------------------------
  Cycle       Energy         DIIS Error
 ---------------------------------------
    1    -958.6941077741      1.81E-11
    2    -958.6941077741      2.25E-11 Convergence criterion met
 ---------------------------------------
 SCF time:  CPU 103.15 s  wall 103.25 s
 SCF   energy in the final basis set = -958.6941077741
 Total energy in the final basis set = -958.6941077741
 Direct RCIS calculation will be performed
 Triplet excitation energies requested
 CIS energy converged when residual is below 10e-10
 ---------------------------------------------------
 Iter    Rts Conv    Rts Left    Ttl Dev     Max Dev
 ---------------------------------------------------
   1         0           2      0.000462    0.000336
   2         0           2      0.000461    0.000309
   3         0           2      0.000419    0.000296
   4         0           2      0.000342    0.000275
   5         0           2      0.000197    0.000170
   6         0           2      0.000105    0.000097
   7         0           2      0.000048    0.000045
   8         0           2      0.000021    0.000020
   9         0           2      0.000007    0.000006
  10         0           2      0.000002    0.000002
  11         0           2      0.000001    0.000001
  12         0           2      0.000001    0.000001
  13         0           2      0.000000    0.000000
  14         0           2      0.000000    0.000000
  15         0           2      0.000000    0.000000
  16         0           2      0.000000    0.000000
  17         0           2      0.000000    0.000000
  18         0           2      0.000000    0.000000
  19         0           2      0.000000    0.000000
  20         1           1      0.000000    0.000000
  21         1           1      0.000000    0.000000
  22         1           1      0.000000    0.000000
  23         2           0      0.000000    0.000000    Roots Converged
 ---------------------------------------------------
 
 
 ---------------------------------------------------
               CIS Excitation Energies              
 ---------------------------------------------------

 Excited state   1: excitation energy (eV) =    2.5549
    Total energy for state   1:   -958.600216473322
    Multiplicity: Triplet 
    Trans. Mom.:  0.0000 X   0.0000 Y   0.0000 Z
    Strength   :  0.0000
    D( 81) --> V(  4) amplitude = -0.2865
    D( 82) --> V(  1) amplitude = -0.8048
    D( 83) --> V(  1) amplitude =  0.3885

 Excited state   2: excitation energy (eV) =    2.7665
    Total energy for state   2:   -958.592441114467
    Multiplicity: Triplet 
    Trans. Mom.:  0.0000 X   0.0000 Y   0.0000 Z
    Strength   :  0.0000
    D( 80) --> V(  5) amplitude = -0.3231
    D( 83) --> V(  3) amplitude =  0.3285
    D( 84) --> V(  2) amplitude = -0.8056
 
 ---------------------------------------------------
  Timing summary (seconds)
  CPU time       2016.03s
  System time       0.00s
  Wall time      2018.63s


 Entering the ER Localization Code for CIS excited states. 

NOTE: THIS HAS BEEN ONLY PARTIALLY TESTED FOR THE CASE THAT WE HAVE UNRESTRICTED ORBITALS.
INITIAL CENTER1 LOCATIONS: state 0  Occ x  8.065 y  1.410 z -0.116 Virt x  8.006 y  1.371 z -0.122
INITIAL CENTER1 LOCATIONS: state 1  Occ x -7.646 y  1.120 z  0.007 Virt x -7.633 y  1.118 z -0.031
INITIAL CENTER2 LOCATIONS: state 0  Occ x 73.754 y  5.732 z  2.633 Virt x 73.154 y  6.501 z  2.942
INITIAL CENTER2 LOCATIONS: state 1  Occ x 67.560 y  6.190 z  5.650 Virt x 68.136 y  6.377 z  5.710
INITIAL STANDARD DEVIATIONS: state 0  Occ x  2.952 y  1.935 z  1.618 Virt x  3.011 y  2.150 z  1.711
INITIAL STANDARD DEVIATIONS: state 1  Occ x  3.016 y  2.221 z  2.377 Virt x  3.142 y  2.264 z  2.389
INITIAL : state 0 sum of square of distances to other adiabatic states Occ 246.935342 Virt 244.637833
INITIAL : state 1 sum of square of distances to other adiabatic states Occ 246.935342 Virt 244.637833



Calling Random Orthogonal Matrix...
RandomSeed = 25
location random matrix in checkantisymmetry: max_diff = 0.000000e+00
location random matrix in checkunitary: max_diff = 0.000000e+00
 initially ruedvalue =    1.02145503278552     
showmatrix initial R-Matrix(0,0) =   0.5517743270
showmatrix initial R-Matrix(1,0) =   0.0022095607
showmatrix initial R-Matrix(0,1) =  -0.0027513718
showmatrix initial R-Matrix(1,1) =   0.4696807058
JacSwp  rnd     1 max_diff -9.999000e+03 ruedval     1.0215201753
In RUED_JACOBI SWEEPS for DIABATIC STATES, ending in round     1  because max_diff = 3.252607e-19
showmatrix final R-Matrix(0,0) =   0.5518104739
showmatrix final R-Matrix(1,0) =  -0.0000014104
showmatrix final R-Matrix(0,1) =  -0.0000014104
showmatrix final R-Matrix(1,1) =   0.4697097014
showmatrix final adiabatic -> diabatic RotMatrix(0,0) =   0.9999975315
showmatrix final adiabatic -> diabatic RotMatrix(1,0) =   0.0022219446
showmatrix final adiabatic -> diabatic RotMatrix(0,1) =  -0.0022219446
showmatrix final adiabatic -> diabatic RotMatrix(1,1) =   0.9999975315
location RotMatrix in boys_diabatic_nogs in checkunitary: max_diff = 2.220446e-16
showing H in adiabatic representation: NO coupling elements!!!
showmatrix adiabatH(0,0) =   0.0938913008
showmatrix adiabatH(1,0) =   0.0000000000
showmatrix adiabatH(0,1) =   0.0000000000
showmatrix adiabatH(1,1) =   0.1016666596
getting H in diabatic representation: WITH coupling elements!!!
showmatrix diabatH(0,0) =   0.0938913392
showmatrix diabatH(1,0) =   0.0000172764
showmatrix diabatH(0,1) =   0.0000172764
showmatrix diabatH(1,1) =   0.1016666212
FINAL CENTER LOCATIONS Spin Occ : state 0 x  8.065 y  1.410 z -0.116  Virt x  8.006 y  1.371 z -0.122
FINAL CENTER LOCATIONS Spin Occ : state 1 x -7.646 y  1.120 z  0.007  Virt x -7.633 y  1.118 z -0.031
FINAL CENTER2 LOCATIONS: state 0  Occ x 73.754 y  5.732 z  2.633 Virt x 73.154 y  6.501 z  2.942
FINAL CENTER2 LOCATIONS: state 1  Occ x 67.560 y  6.190 z  5.650 Virt x 68.136 y  6.377 z  5.710
FINAL STANDARD DEVIATIONS: state 0  Occ x  2.952 y  1.935 z  1.618 Virt x  3.011 y  2.150 z  1.711
FINAL STANDARD DEVIATIONS: state 1  Occ x  3.016 y  2.221 z  2.377 Virt x  3.142 y  2.264 z  2.389
FINAL: state 0 sum of square of distances to other Centers Occ 246.940197 Virt 244.642549 
FINAL: state 1 sum of square of distances to other Centers Occ 246.940197 Virt 244.642549 



Calculating ER second derivative! Everything should be negative. If so, we are done.
location hessian --max_diff from checksymmetry = 0.000000e+00
eval of hessian: count 0 eval -3.022921
 STSman time:  CPU 0.00 s  wall 0.00 s

 Analysis of SCF Wavefunction
 
 --------------------------------------------------------------
                    Orbital Energies (a.u.)
 --------------------------------------------------------------
 
 Alpha MOs
 -- Occupied --
-20.547 -11.322 -11.271 -11.258 -11.252 -11.247 -11.243 -11.243
-11.241 -11.241 -11.240 -11.239 -11.238 -11.236 -11.234 -11.234
-11.233 -11.233 -11.232 -11.230 -11.229 -11.228 -11.225 -11.225
 -1.377  -1.181  -1.161  -1.135  -1.108  -1.061  -1.048  -1.034
 -1.030  -0.999  -0.994  -0.976  -0.898  -0.864  -0.850  -0.839
 -0.829  -0.815  -0.809  -0.778  -0.756  -0.706  -0.705  -0.693
 -0.670  -0.664  -0.648  -0.639  -0.625  -0.619  -0.617  -0.605
 -0.601  -0.595  -0.588  -0.582  -0.576  -0.568  -0.554  -0.538
 -0.536  -0.529  -0.528  -0.520  -0.505  -0.500  -0.491  -0.480
 -0.478  -0.472  -0.452  -0.448  -0.438  -0.433  -0.416  -0.381
 -0.355  -0.317  -0.313  -0.289
 -- Virtual --
  0.071   0.098   0.127   0.141   0.186   0.214   0.220   0.227
  0.241   0.246   0.252   0.265   0.266   0.275   0.279   0.293
  0.294   0.305   0.311   0.319   0.326   0.328   0.329   0.333
  0.338   0.344   0.354   0.363   0.370   0.381   0.390   0.401
  0.407   0.413   0.419   0.430   0.439   0.446   0.463   0.466
  0.478   0.481   0.492   0.501   0.503   0.512   0.526   0.542
  0.549   0.558   0.569   0.597   0.666   0.691   0.697   0.714
  0.719   0.723   0.727   0.730   0.736   0.737   0.741   0.746
  0.751   0.755   0.758   0.770   0.780   0.786   0.792   0.794
  0.798   0.801   0.808   0.818   0.820   0.821   0.830   0.839
  0.842   0.855   0.861   0.864   0.867   0.881   0.889   0.893
  0.913   0.915   0.923   0.928   0.935   0.947   0.949   0.969
  0.974   0.983   1.002   1.020   1.028   1.034   1.040   1.047
  1.052   1.062   1.067   1.072   1.073   1.077   1.082   1.084
  1.087   1.096   1.099   1.105   1.115   1.120   1.123   1.128
  1.133   1.137   1.156   1.169   1.177   1.187   1.191   1.193
  1.199   1.211   1.214   1.217   1.221   1.225   1.231   1.238
  1.251   1.260   1.280   1.284   1.301   1.304   1.308   1.319
  1.337   1.356   1.367   1.380   1.383   1.399   1.421   1.427
  1.442   1.452   1.462   1.483   1.497   1.503   1.507   1.512
  1.544   1.552   1.578   1.581   1.603   1.611   1.625   1.633
  1.650   1.656   1.657   1.672   1.678   1.680   1.688   1.697
  1.707   1.711   1.724   1.730   1.748   1.764   1.767   1.790
  1.798   1.819   1.833   1.857   1.898   1.924   1.967   1.983
  2.001   2.007   2.032   2.033   2.050   2.053   2.056   2.062
  2.092   2.103   2.109   2.112   2.121   2.136   2.146   2.155
  2.158   2.171   2.176   2.185   2.189   2.195   2.202   2.208
  2.209   2.224   2.228   2.234   2.242   2.244   2.254   2.263
  2.272   2.276   2.292   2.300   2.303   2.308   2.330   2.337
  2.359   2.364   2.377   2.394   2.400   2.408   2.434   2.443
  2.451   2.454   2.461   2.471   2.497   2.503   2.506   2.518
  2.523   2.531   2.550   2.553   2.563   2.579   2.592   2.599
  2.605   2.617   2.630   2.646   2.655   2.664   2.674   2.681
  2.687   2.700   2.705   2.710   2.717   2.722   2.733   2.741
  2.745   2.758   2.768   2.776   2.783   2.791   2.797   2.809
  2.810   2.835   2.837   2.851   2.854   2.864   2.865   2.880
  2.890   2.902   2.918   2.920   2.927   2.936   2.948   2.950
  2.956   2.963   2.969   2.977   2.994   3.014   3.016   3.031
  3.053   3.057   3.061   3.067   3.093   3.096   3.105   3.120
  3.130   3.152   3.168   3.174   3.178   3.191   3.206   3.216
  3.220   3.224   3.261   3.265   3.278   3.289   3.312   3.349
  3.364   3.377   3.402   3.426   3.441   3.479   3.523   3.530
  3.556   3.623   3.628   3.630   3.639   3.661   3.668   3.691
  3.725   3.729   3.733   3.745   3.795   3.811   3.814   3.866
  3.882   3.888   3.889   3.898   3.917   3.926   3.982   4.166
  4.203   4.314   4.364   4.525   4.544   4.569   4.572   4.585
  4.605   4.615   4.634   4.720   4.758   4.781   4.833   4.844
  4.867   4.912   4.946   4.963   5.092   5.173   5.197   5.219
  5.272   5.382
 --------------------------------------------------------------
 
          Ground-State Mulliken Net Atomic Charges

     Atom                 Charge (a.u.)
  ----------------------------------------
      1 C                    -0.201942
      2 C                    -0.228359
      3 C                    -0.207110
      4 C                    -0.168601
      5 C                    -0.185561
      6 C                    -0.164633
      7 H                     0.128079
      8 H                     0.109938
      9 H                     0.122369
     10 H                     0.109360
     11 H                     0.125539
     12 H                     0.132383
     13 H                     0.134990
     14 H                     0.113029
     15 H                     0.127464
     16 H                     0.112700
     17 C                     0.025093
     18 C                    -0.173906
     19 C                    -0.153661
     20 C                    -0.109137
     21 H                     0.152893
     22 C                    -0.086979
     23 H                     0.153119
     24 C                    -0.180031
     25 H                     0.165292
     26 H                     0.197154
     27 C                     0.396347
     28 H                     0.107122
     29 O                    -0.539599
     30 C                    -0.162224
     31 C                    -0.024881
     32 C                     0.020350
     33 C                    -0.127092
     34 C                    -0.040302
     35 C                    -0.156694
     36 C                    -0.157615
     37 H                     0.151985
     38 C                    -0.124493
     39 C                    -0.127749
     40 H                     0.140631
     41 C                    -0.159785
     42 H                     0.151452
     43 H                     0.151893
     44 H                     0.152641
     45 H                     0.151121
     46 H                     0.147411
  ----------------------------------------
  Sum of atomic charges =     0.000000

 -----------------------------------------------------------------
                    Cartesian Multipole Moments
 -----------------------------------------------------------------
    Charge (ESU x 10^10)
                 0.0000
    Dipole Moment (Debye)
         X      -4.0948      Y      -0.7650      Z      -1.5779
       Tot       4.4545
    Quadrupole Moments (Debye-Ang)
        XX    -179.5194     XY     -10.2337     YY    -137.3917
        XZ     -10.9268     YZ      -8.1744     ZZ    -134.0006
    Octopole Moments (Debye-Ang^2)
       XXX    -383.9613    XXY      -0.3382    XYY      25.1436
       YYY       5.4915    XXZ     -65.6311    XYZ     -31.1943
       YYZ     -10.9790    XZZ     -21.8445    YZZ       3.8087
       ZZZ       2.3242
    Hexadecapole Moments (Debye-Ang^3)
      XXXX  -16058.1146   XXXY    -837.8434   XXYY   -2509.6855
      XYYY     112.0655   YYYY   -2244.5486   XXXZ    -609.4862
      XXYZ    -234.5098   XYYZ     -43.8333   YYYZ     -31.3688
      XXZZ   -2291.7808   XYZZ     -30.3736   YYZZ    -527.5008
      XZZZ      12.5122   YZZZ     -17.2003   ZZZZ    -898.7808
 -----------------------------------------------------------------
Archival summary:
1\1\fermi.chem.uh.edu\SP\HF\6-31G**\12322\xunmo\FriFeb2820:54:212014FriFeb2820:54:212014\0\\#,HF,6-31G**,\\0,1\C\C,1,1.36439\H,2,1.07693,1,119.702\C,2,1.41966,1,122.545,3,179.979,0\C,4,1.40606,2,119.108,1,-0.136808,0\C,5,1.41797,4,118.132,2,-0.0193977,0\H,6,1.07666,5,118.906,4,-179.808,0\C,6,1.35783,5,121.25,4,0.0999745,0\H,8,1.07149,6,118.414,5,-179.819,0\C,5,1.41971,4,119.273,2,-179.942,0\H,10,1.07645,5,118.96,4,179.971,0\C,10,1.35813,5,120.605,4,-0.020183,0\H,12,1.07564,10,120.287,5,-179.994,0\C,12,1.41651,10,120.196,5,0.0225588,0\H,14,1.07573,12,119.455,10,179.996,0\C,14,1.35822,12,120.371,10,0.00561104,0\H,16,1.07636,14,120.365,12,179.988,0\C,1,1.52643,2,118.801,3,0.616772,0\H,18,1.08539,1,104.502,2,-7.38924,0\C,18,1.54534,1,115.341,2,-123.025,0\H,20,1.08591,18,109.726,1,40.0469,0\H,20,1.08892,18,107.087,1,155.133,0\C,20,1.53223,18,115.253,1,-85.1466,0\H,23,1.08548,20,110.734,18,72.4101,0\H,23,1.08689,20,108.925,18,-171.604,0\C,23,1.53059,20,111.967,18,-50.3449,0\H,26,1.08643,23,110.139,20,177.172,0\H,26,1.08836,23,109.025,20,-66.2599,0\C,26,1.54017,23,111.783,20,54.889,0\H,29,1.08624,26,107.499,23,61.1738,0\C,29,1.512,26,112.758,23,178.415,0\C,31,1.44293,29,122.171,26,58.5793,0\H,32,1.07534,31,118.909,29,-0.702003,0\C,32,1.35474,31,122.203,29,179.311,0\H,34,1.07204,32,121.978,31,179.92,0\C,31,1.44799,29,120.693,26,-122.58,0\H,36,1.0762,31,118.325,29,0.632602,0\C,36,1.35506,31,122.195,29,-179.329,0\H,38,1.07535,36,120.854,31,-179.942,0\C,38,1.45252,36,120.054,31,0.0989974,0\C,40,1.43892,38,121.181,36,-179.834,0\H,41,1.09167,40,116.443,38,0.0337783,0\O,41,1.21188,40,123.232,38,-179.974,0\C,29,1.54196,26,110.006,23,-56.2162,0\H,44,1.08545,29,109.865,26,178.062,0\H,44,1.08845,29,108.112,26,-66.1043,0\\HF=-958.694108\\@

 Total job time:  2378.09s(wall), 2375.13s(cpu) 
 Fri Feb 28 20:54:21 2014

        *************************************************************
        *                                                           *
        *  Thank you very much for using Q-Chem.  Have a nice day.  *
        *                                                           *
        *************************************************************


0 sent ACK to 0 
now end server 0 ... 
cleanup process ... done
