
Running Job 1 of 4 INP/c14ee
qchem INP/c14ee_36365.0 /home/qchem_scratch/qchem36365/ 1
/home/QCHEM/bin/mpi/mpirun_qchem -machinefile /home/QCHEM/bin/mpi/machines -np 1 /home/QCHEM/exe/qcprog.exe INP/c14ee_36365.0 /home/qchem_scratch/qchem36365/

Process 0 of 1 is on fermi.chem.uh.edu - thread support 0
initial socket setup ...start
initial socket setup ...done 
now start server 0 ... 
                  Welcome to Q-Chem
     A Quantum Leap Into The Future Of Chemistry

 Y. Shao, L. Fusti-Molnar, Y. Jung, J. Kussmann, C. Ochsenfeld, S. T. Brown, 
 A. T. B. Gilbert, L. V. Slipchenko, S. V. Levchenko, D. P. O'Neill, 
 R. A. DiStasio Jr., R. C. Lochan, T. Wang, G. J. O. Beran, N. A. Besley, 
 J. M. Herbert, C. Y. Lin, T. Van Voorhis, S. H. Chien, A. Sodt, R. P. Steele, 
 V. A. Rassolov, P. E. Maslen, P. P. Korambath, R. D. Adamson, B. Austin, 
 J. Baker, E. F. C. Byrd, H. Dachsel, R. J. Doerksen, A. Dreuw, B. D. Dunietz, 
 A. D. Dutoi, T. R. Furlani, S. R. Gwaltney, A. Heyden, S. Hirata, C.-P. Hsu, 
 G. Kedziora, R. Z. Khaliullin, P. Klunzinger, A. M. Lee, M. S. Lee, W. Liang, 
 I. Lotan, N. Nair, B. Peters, E. I. Proynov, P. A. Pieniazek, Y. M. Rhee, 
 J. Ritchie, E. Rosta, C. D. Sherrill, A. C. Simmonett, J. E. Subotnik, 
 H. L. Woodcock III, W. Zhang, A. T. Bell, A. K. Chakraborty, D. M. Chipman, 
 F. J. Keil, A. Warshel, W. J. Hehre, H. F. Schaefer III, J. Kong, 
 A. I. Krylov, P. M. W. Gill, M. Head-Gordon

 Additional authors for Version 3.1: 
 Z. Gan, Y. Zhao, N. E. Schultz, D. Truhlar, E. Epifanovsky, M. Oana

 Additional authors for Version 3.2: 
 R. Baer, B. R. Brooks, D. Casanova, J.-D. Chai, C.-L. Cheng, C. Cramer, 
 D. Crittenden, A. Ghysels, G. Hawkins, E. G. Hohenstein, C. Kelley, 
 W. Kurlancheek, D. Liotard, E. Livshits, P. Manohar, A. Marenich, 
 D. Neuhauser, R. Olson, M. A. Rohrdanz, K. S. Thanthiriwatte, A. J. W. Thom, 
 V. Vanovschi, C. F. Williams, Q. Wu, Z.-Q. You

 Additional authors for Version 4.0: 
 A. Aspuru-Guzik, Y. Bernard, C. Chang, J. Deng, A. Dreuw, M. Diedenhofen, 
 R. G. Edgar, D. Ghosh, W. A. Goddard III, M. Goldey, L. D. Jacobson, 
 M. Gordon, B. Kaduk, I. Kaliman, K. Khistyaev, R. King, A. Klamt, 
 D. Kosenkov, T. Kus, D. Lambrecht, A. Landau, A. W. Lange, K. Lawler, F. Liu, 
 J. Liu, R. Olivares-Amaya, S. P. Mao, J. Parkhill, N. Russ, M. Schmidt, 
 N. Shenvi, D. Small, Y. C. Su, E. Sundstrom, L. Vogt, O. Vydrov, M. Watson, 
 M. Wormit, X. Xu, S. Yeganeh, I. Y. Zhang, D. Zuev

 Additional authors for Version 4.1: 
 X. Feng, M. W. D. Hanson-Heine, P. Horn, H. Ji, A. Laurent, R. Peverati, 
 N. Mardirossian, N. Sergueev, S. Sharada, P. Zimmerman

 Q-Chem, Version 4.1, Q-Chem, Inc., Pittsburgh, PA (2013).

 Parts of Q-Chem use Armadillo 3.6.2 (Piazza del Duomo).
 http://arma.sourceforge.net/

 Intel X86 Linux Version 4.1.2

 Q-chem begins on Fri Feb 28 08:30:07 2014  

Host: 
0

     Scratch files written to /home/qchem_scratch/qchem36365//
 Feb414 28838_zgan 2267   
 Parallel job on  1  processors
Processing $rem in /home/QCHEM/config/preferences.
 MEM_TOTAL  2000 
Finally everything over in PARseQInput

--------------------------------------------------------------
User input:
--------------------------------------------------------------
$comment
C1,3ea
$end
$molecule
0 1
C       2.4414638038    -0.6700274012     0.0000000000
H       2.6051050674     1.4454449961     0.0000000000
C       3.1317260103     0.5064715538     0.0000000000
C       4.5408556143    -1.8840424156     0.0000000000
C       4.5498522270     0.5427727379     0.0000000000
C       3.1826193748    -1.8827515804     0.0000000000
C       5.2687314748    -0.6677358880     0.0000000000
C       5.2710472829     1.7679045922     0.0000000000
H       2.6509603480    -2.8186569650     0.0000000000
H       7.2335590931    -1.5585430960     0.0000000000
H       5.0804260711    -2.8155606986     0.0000000000
C       6.6285792931     1.7744720714     0.0000000000
H       4.7228138412     2.6942616148     0.0000000000
H       7.1649027409     2.7070048312     0.0000000000
C       7.3507875318     0.5551331952     0.0000000000
H       8.4262196662     0.5760827933     0.0000000000
C       6.6888916780    -0.6300712230     0.0000000000
C       0.9211716591    -0.7197114897     0.0000000000
C      -1.2192137786    -0.1897912420     1.2628813455
C      -1.2192137786    -0.1897912420    -1.2628813455
C      -1.8385322052     0.4395702053     0.0000000000
C       0.3084084636    -0.0881763953    -1.2609806691
C       0.3084084636    -0.0881763953     1.2609806691
H      -1.5091817693    -1.2369123717     1.3276495647
H      -1.5091817693    -1.2369123717    -1.3276495647
H      -1.5597482870     1.4926306348     0.0000000000
H       0.5997731033     0.9585038865    -1.3212642018
H       0.5997731033     0.9585038865     1.3212642018
H       0.6364636530    -1.7708371254     0.0000000000
H      -1.6210573062     0.2966176943     2.1473467220
H      -1.6210573062     0.2966176943    -2.1473467220
H       0.7122749538    -0.5716882400    -2.1459328582
H       0.7122749538    -0.5716882400     2.1459328582
C      -3.3481338737     0.3785681065     0.0000000000
C      -6.2007515076     0.2943433617     0.0000000000
C      -4.0622361175    -0.8761663678     0.0000000000
C      -4.1405718712     1.5892009765     0.0000000000
C      -5.4956022011     1.5650684739     0.0000000000
C      -5.4153645947    -0.9366384458     0.0000000000
H      -3.5001669305    -1.7930196187     0.0000000000
H      -3.6278638848     2.5354839871     0.0000000000
H      -6.0636932764     2.4781028221     0.0000000000
H      -5.9420593197    -1.8703852603     0.0000000000
C      -7.6387069664     0.2404591758     0.0000000000
H      -8.1611925695     1.1989695168     0.0000000000
O      -8.2643300090    -0.7974158195     0.0000000000
$end


$rem
MEM_TOTAL	20000
MEM_STATIC	5000
JOBTYPE    freq 
SYMMETRY   FALSE
EXCHANGE     	HF
CORRELATION  	none  (built-in)
BASIS       	6-31g** 
cis_state_deriv   1
cis_n_roots       3
cis_singlets      false
cis_triplets      true
max_scf_cycles=100
max_cis_cycles=100
$end

--------------------------------------------------------------
 ----------------------------------------------------------------
             Standard Nuclear Orientation (Angstroms)
    I     Atom           X                Y                Z
 ----------------------------------------------------------------
    1      C       2.4414638038    -0.6700274012     0.0000000000
    2      H       2.6051050674     1.4454449961     0.0000000000
    3      C       3.1317260103     0.5064715538     0.0000000000
    4      C       4.5408556143    -1.8840424156     0.0000000000
    5      C       4.5498522270     0.5427727379     0.0000000000
    6      C       3.1826193748    -1.8827515804     0.0000000000
    7      C       5.2687314748    -0.6677358880     0.0000000000
    8      C       5.2710472829     1.7679045922     0.0000000000
    9      H       2.6509603480    -2.8186569650     0.0000000000
   10      H       7.2335590931    -1.5585430960     0.0000000000
   11      H       5.0804260711    -2.8155606986     0.0000000000
   12      C       6.6285792931     1.7744720714     0.0000000000
   13      H       4.7228138412     2.6942616148     0.0000000000
   14      H       7.1649027409     2.7070048312     0.0000000000
   15      C       7.3507875318     0.5551331952     0.0000000000
   16      H       8.4262196662     0.5760827933     0.0000000000
   17      C       6.6888916780    -0.6300712230     0.0000000000
   18      C       0.9211716591    -0.7197114897     0.0000000000
   19      C      -1.2192137786    -0.1897912420     1.2628813455
   20      C      -1.2192137786    -0.1897912420    -1.2628813455
   21      C      -1.8385322052     0.4395702053     0.0000000000
   22      C       0.3084084636    -0.0881763953    -1.2609806691
   23      C       0.3084084636    -0.0881763953     1.2609806691
   24      H      -1.5091817693    -1.2369123717     1.3276495647
   25      H      -1.5091817693    -1.2369123717    -1.3276495647
   26      H      -1.5597482870     1.4926306348     0.0000000000
   27      H       0.5997731033     0.9585038865    -1.3212642018
   28      H       0.5997731033     0.9585038865     1.3212642018
   29      H       0.6364636530    -1.7708371254     0.0000000000
   30      H      -1.6210573062     0.2966176943     2.1473467220
   31      H      -1.6210573062     0.2966176943    -2.1473467220
   32      H       0.7122749538    -0.5716882400    -2.1459328582
   33      H       0.7122749538    -0.5716882400     2.1459328582
   34      C      -3.3481338737     0.3785681065     0.0000000000
   35      C      -6.2007515076     0.2943433617     0.0000000000
   36      C      -4.0622361175    -0.8761663678     0.0000000000
   37      C      -4.1405718712     1.5892009765     0.0000000000
   38      C      -5.4956022011     1.5650684739     0.0000000000
   39      C      -5.4153645947    -0.9366384458     0.0000000000
   40      H      -3.5001669305    -1.7930196187     0.0000000000
   41      H      -3.6278638848     2.5354839871     0.0000000000
   42      H      -6.0636932764     2.4781028221     0.0000000000
   43      H      -5.9420593197    -1.8703852603     0.0000000000
   44      C      -7.6387069664     0.2404591758     0.0000000000
   45      H      -8.1611925695     1.1989695168     0.0000000000
   46      O      -8.2643300090    -0.7974158195     0.0000000000
 ----------------------------------------------------------------
 Molecular Point Group                 Cs    NOp =  2
 Largest Abelian Subgroup              Cs    NOp =  2
 Nuclear Repulsion Energy =  1785.0890920185 hartrees
 There are       84 alpha and       84 beta electrons
 Requested basis set is 6-31G(d,p)
 There are 162 shells and 470 basis functions

Total QAlloc Memory Limit  20000 MB
Mega-Array Size      4888 MB
MEM_STATIC part      5000 MB
 A cutoff of  1.0D-11 yielded   6710 shell pairs
 There are     57393 function pairs
 Smallest overlap matrix eigenvalue = 2.65E-04
 Guess from superposition of atomic densities
 Warning:  Energy on first SCF cycle will be non-variational
 A restricted Hartree-Fock SCF calculation will be
 performed using Pulay DIIS extrapolation
 SCF converges when DIIS error is below 1.0E-08
 ---------------------------------------
  Cycle       Energy         DIIS Error
 ---------------------------------------
    1    -969.0965687176      3.69E-02
    2    -958.3852494114      2.89E-03
    3    -958.6404043896      1.58E-03
    4    -958.6919185836      5.82E-04
    5    -958.7016503806      7.18E-05
    6    -958.7018865924      3.54E-05
    7    -958.7019558361      1.57E-05
    8    -958.7019745863      7.01E-06
    9    -958.7019787067      2.13E-06
   10    -958.7019791284      9.57E-07
   11    -958.7019792238      4.70E-07
   12    -958.7019792577      2.05E-07
   13    -958.7019792640      8.14E-08
   14    -958.7019792651      2.52E-08
   15    -958.7019792646      9.21E-09 Convergence criterion met
 ---------------------------------------
 SCF time:  CPU 462.38 s  wall 467.10 s
 SCF   energy in the final basis set = -958.7019792646
 Total energy in the final basis set = -958.7019792646
 Direct RCIS calculation will be performed
 Triplet excitation energies requested
 CIS energy converged when residual is below 10e- 6
 ---------------------------------------------------
 Iter    Rts Conv    Rts Left    Ttl Dev     Max Dev
 ---------------------------------------------------
   1         0           3      0.000749    0.000435
   2         0           3      0.000704    0.000354
   3         0           3      0.000470    0.000207
   4         0           3      0.000246    0.000131
   5         0           3      0.000198    0.000155
   6         0           3      0.000110    0.000098
   7         0           3      0.000045    0.000041
   8         1           2      0.000041    0.000038
   9         2           1      0.000076    0.000075
  10         2           1      0.000096    0.000095
  11         2           1      0.000072    0.000071
  12         2           1      0.000080    0.000079
  13         2           1      0.000047    0.000046
  14         2           1      0.000034    0.000033
  15         2           1      0.000032    0.000031
  16         2           1      0.000018    0.000018
  17         2           1      0.000008    0.000007
  18         2           1      0.000004    0.000003
  19         2           1      0.000003    0.000002
  20         2           1      0.000002    0.000001
  21         3           0      0.000001    0.000001    Roots Converged
 ---------------------------------------------------
 
 
 ---------------------------------------------------
               CIS Excitation Energies              
 ---------------------------------------------------

 Excited state   1: excitation energy (eV) =    2.5565
    Total energy for state   1:   -958.608030598676
    Multiplicity: Triplet 
    Trans. Mom.:  0.0000 X   0.0000 Y   0.0000 Z
    Strength   :  0.0000
    D( 81) --> V(  4) amplitude = -0.2876
    D( 82) --> V(  1) amplitude = -0.8679
    D( 83) --> V(  1) amplitude = -0.2170

 Excited state   2: excitation energy (eV) =    2.7404
    Total energy for state   2:   -958.601270988924
    Multiplicity: Triplet 
    Trans. Mom.:  0.0000 X   0.0000 Y   0.0000 Z
    Strength   :  0.0000
    D( 80) --> V(  5) amplitude = -0.3249
    D( 83) --> V(  3) amplitude = -0.3495
    D( 84) --> V(  2) amplitude =  0.8155

 Excited state   3: excitation energy (eV) =    4.1262
    Total energy for state   3:   -958.550343205130
    Multiplicity: Triplet 
    Trans. Mom.:  0.0000 X   0.0000 Y   0.0000 Z
    Strength   :  0.0000
    D( 80) --> V(  2) amplitude =  0.6606
    D( 84) --> V(  5) amplitude = -0.6501
 
 ---------------------------------------------------
 Calculating Relaxed Density
 ---------------------------------------------------
 Iter    Rts Conv    Rts Left    Ttl Dev     Max Dev
 ---------------------------------------------------
   1         0           3      0.000275    0.000153
   2         0           3      0.000090    0.000054
   3         0           3      0.000053    0.000039
   4         0           3      0.000016    0.000011
   5         0           3      0.000006    0.000004
   6         2           1      0.000001    0.000001
   7         3           0      0.000000    0.000000    Roots Converged
 ---------------------------------------------------
  Timing summary (seconds)
  CPU time       2043.57s
  System time       0.00s
  Wall time      2045.07s
 STSman time:  CPU 0.00 s  wall 0.00 s

 Analysis of SCF Wavefunction
 
 --------------------------------------------------------------
             Orbital Energies (a.u.) and Symmetries
 --------------------------------------------------------------
 
 Alpha MOs, Restricted
 -- Occupied --                  
-20.548 -11.322 -11.272 -11.260 -11.253 -11.248 -11.244 -11.244
  1 A'    2 A'    3 A'    4 A'    5 A'    6 A'    7 A'    8 A'                 
-11.242 -11.240 -11.239 -11.238 -11.236 -11.234 -11.233 -11.233
  9 A'   10 A'   11 A'   12 A'   13 A'   14 A'   15 A'   16 A'                 
-11.232 -11.231 -11.231 -11.229 -11.229 -11.229 -11.225 -11.225
 17 A'   18 A'   19 A'   20 A'    1 A"   21 A'    2 A"   22 A'                 
 -1.378  -1.180  -1.162  -1.137  -1.110  -1.064  -1.045  -1.035
 23 A'   24 A'   25 A'   26 A'   27 A'   28 A'   29 A'   30 A'                 
 -1.016  -1.016  -0.992  -0.972  -0.900  -0.857  -0.847  -0.841
  3 A"   31 A'   32 A'   33 A'   34 A'   35 A'    4 A"   36 A'                 
 -0.833  -0.816  -0.803  -0.779  -0.765  -0.705  -0.702  -0.698
 37 A'   38 A'   39 A'   40 A'   41 A'   42 A'   43 A'   44 A'                 
 -0.678  -0.663  -0.649  -0.629  -0.620  -0.619  -0.614  -0.613
 45 A'   46 A'   47 A'   48 A'   49 A'   50 A'   51 A'    5 A"                 
 -0.602  -0.593  -0.588  -0.578  -0.575  -0.565  -0.558  -0.539
 52 A'   53 A'   54 A'   55 A'   56 A'   57 A'    6 A"    7 A"                 
 -0.539  -0.535  -0.526  -0.515  -0.500  -0.497  -0.490  -0.482
 58 A'    8 A"    9 A"   59 A'   60 A'   10 A"   61 A'   11 A"                 
 -0.481  -0.470  -0.462  -0.451  -0.438  -0.430  -0.417  -0.380
 62 A'   63 A'   64 A'   12 A"   65 A'   13 A"   66 A'   14 A"                 
 -0.356  -0.317  -0.312  -0.287
 15 A"   16 A"   17 A"   18 A"                                                 
 -- Virtual --                   
  0.070   0.099   0.130   0.140   0.187   0.220   0.222   0.223
 19 A"   20 A"   21 A"   22 A"   23 A"   24 A"   67 A'   68 A'                 
  0.236   0.243   0.254   0.263   0.267   0.268   0.285   0.287
 69 A'   70 A'   71 A'   72 A'   25 A"   73 A'   26 A"   74 A'                 
  0.294   0.303   0.312   0.321   0.324   0.326   0.328   0.333
 75 A'   76 A'   77 A'   78 A'   79 A'   27 A"   80 A'   28 A"                 
  0.336   0.342   0.355   0.358   0.360   0.376   0.388   0.392
 81 A'   29 A"   82 A'   30 A"   83 A'   84 A'   85 A'   86 A'                 
  0.411   0.414   0.423   0.423   0.437   0.447   0.462   0.467
 31 A"   87 A'   88 A'   89 A'   90 A'   32 A"   91 A'   33 A"                 
  0.477   0.480   0.485   0.493   0.506   0.517   0.524   0.534
 34 A"   92 A'   93 A'   94 A'   95 A'   96 A'   97 A'   98 A'                 
  0.544   0.568   0.574   0.594   0.661   0.691   0.707   0.709
 99 A'  100 A'  101 A'  102 A'  103 A'  104 A'  105 A'  106 A'                 
  0.713   0.726   0.728   0.729   0.734   0.736   0.739   0.745
 35 A"  107 A'  108 A'   36 A"   37 A"   38 A"  109 A'  110 A'                 
  0.747   0.747   0.754   0.766   0.777   0.785   0.794   0.795
111 A'   39 A"  112 A'  113 A'  114 A'   40 A"  115 A'   41 A"                 
  0.798   0.804   0.812   0.816   0.817   0.827   0.828   0.833
116 A'  117 A'  118 A'   42 A"  119 A'   43 A"  120 A'  121 A'                 
  0.846   0.858   0.863   0.869   0.872   0.875   0.883   0.904
122 A'  123 A'   44 A"  124 A'   45 A"  125 A'  126 A'   46 A"                 
  0.909   0.912   0.922   0.929   0.940   0.949   0.950   0.971
 47 A"  127 A'   48 A"  128 A'  129 A'   49 A"   50 A"  130 A'                 
  0.978   0.983   0.990   1.028   1.030   1.040   1.051   1.055
 51 A"   52 A"  131 A'   53 A"   54 A"  132 A'  133 A'  134 A'                 
  1.058   1.060   1.066   1.069   1.071   1.077   1.080   1.081
135 A'   55 A"   56 A"  136 A'  137 A'  138 A'  139 A'   57 A"                 
  1.085   1.087   1.100   1.106   1.109   1.112   1.123   1.129
140 A'  141 A'  142 A'  143 A'   58 A"  144 A'  145 A'   59 A"                 
  1.131   1.138   1.146   1.151   1.163   1.166   1.180   1.185
146 A'  147 A'   60 A"  148 A'  149 A'  150 A'   61 A"  151 A'                 
  1.192   1.195   1.210   1.214   1.224   1.224   1.226   1.234
152 A'  153 A'  154 A'  155 A'   62 A"  156 A'  157 A'  158 A'                 
  1.243   1.253   1.270   1.282   1.285   1.307   1.310   1.327
159 A'  160 A'  161 A'  162 A'  163 A'   63 A"  164 A'  165 A'                 
  1.342   1.358   1.378   1.384   1.404   1.412   1.416   1.431
166 A'  167 A'  168 A'  169 A'  170 A'  171 A'   64 A"  172 A'                 
  1.448   1.467   1.478   1.484   1.502   1.512   1.519   1.520
173 A'  174 A'   65 A"  175 A'   66 A"   67 A"  176 A'   68 A"                 
  1.545   1.549   1.571   1.598   1.610   1.625   1.633   1.637
177 A'   69 A"  178 A'   70 A"  179 A'   71 A"   72 A"  180 A'                 
  1.647   1.653   1.660   1.667   1.671   1.678   1.686   1.693
 73 A"   74 A"   75 A"  181 A'  182 A'   76 A"   77 A"   78 A"                 
  1.701   1.711   1.716   1.732   1.735   1.767   1.783   1.791
 79 A"  183 A'  184 A'  185 A'   80 A"   81 A"  186 A'  187 A'                 
  1.799   1.809   1.829   1.859   1.896   1.911   1.941   1.966
 82 A"  188 A'  189 A'   83 A"  190 A'  191 A'   84 A"  192 A'                 
  1.984   1.985   2.033   2.047   2.049   2.053   2.075   2.087
 85 A"  193 A'  194 A'  195 A'   86 A"  196 A'  197 A'  198 A'                 
  2.096   2.100   2.107   2.113   2.115   2.133   2.140   2.147
 87 A"  199 A'  200 A'   88 A"  201 A'   89 A"  202 A'  203 A'                 
  2.148   2.169   2.176   2.185   2.189   2.199   2.199   2.205
 90 A"  204 A'  205 A'  206 A'   91 A"   92 A"  207 A'  208 A'                 
  2.209   2.221   2.228   2.235   2.240   2.245   2.253   2.255
 93 A"  209 A'  210 A'  211 A'  212 A'  213 A'  214 A'  215 A'                 
  2.273   2.276   2.277   2.290   2.301   2.304   2.319   2.335
 94 A"   95 A"  216 A'  217 A'   96 A"  218 A'  219 A'  220 A'                 
  2.338   2.357   2.395   2.396   2.400   2.403   2.417   2.436
 97 A"  221 A'  222 A'  223 A'  224 A'   98 A"  225 A'  226 A'                 
  2.444   2.449   2.458   2.468   2.483   2.497   2.512   2.518
227 A'   99 A"  100 A"  101 A"  228 A'  229 A'  102 A"  230 A'                 
  2.523   2.549   2.549   2.577   2.579   2.593   2.597   2.616
103 A"  231 A'  104 A"  232 A'  105 A"  106 A"  233 A'  234 A'                 
  2.625   2.631   2.637   2.643   2.662   2.662   2.665   2.676
235 A'  107 A"  236 A'  108 A"  237 A'  109 A"  110 A"  111 A"                 
  2.687   2.695   2.708   2.710   2.711   2.716   2.732   2.741
238 A'  239 A'  112 A"  113 A"  240 A'  114 A"  241 A'  115 A"                 
  2.745   2.751   2.761   2.770   2.778   2.784   2.797   2.812
242 A'  116 A"  117 A"  243 A'  244 A'  118 A"  245 A'  246 A'                 
  2.824   2.828   2.834   2.853   2.869   2.872   2.879   2.891
247 A'  119 A"  248 A'  120 A"  249 A'  121 A"  250 A'  251 A'                 
  2.893   2.910   2.914   2.922   2.923   2.928   2.938   2.953
122 A"  123 A"  252 A'  253 A'  124 A"  254 A'  125 A"  126 A"                 
  2.954   2.963   2.974   2.975   2.998   3.013   3.032   3.035
127 A"  255 A'  256 A'  128 A"  257 A'  129 A"  258 A'  130 A"                 
  3.044   3.065   3.073   3.078   3.096   3.098   3.109   3.116
259 A'  131 A"  260 A'  261 A'  262 A'  132 A"  133 A"  263 A'                 
  3.144   3.165   3.166   3.177   3.179   3.193   3.195   3.200
264 A'  265 A'  134 A"  266 A'  135 A"  267 A'  268 A'  269 A'                 
  3.224   3.238   3.259   3.269   3.288   3.301   3.323   3.356
136 A"  270 A'  137 A"  271 A'  138 A"  272 A'  273 A'  274 A'                 
  3.377   3.392   3.413   3.430   3.442   3.477   3.521   3.538
275 A'  276 A'  277 A'  278 A'  279 A'  280 A'  281 A'  282 A'                 
  3.550   3.605   3.630   3.631   3.637   3.659   3.660   3.683
283 A'  284 A'  285 A'  286 A'  287 A'  288 A'  289 A'  139 A"                 
  3.697   3.720   3.730   3.736   3.786   3.802   3.821   3.850
290 A'  140 A"  291 A'  292 A'  293 A'  294 A'  295 A'  141 A"                 
  3.874   3.887   3.889   3.914   3.917   3.930   3.992   4.170
296 A'  297 A'  298 A'  142 A"  299 A'  300 A'  301 A'  302 A'                 
  4.201   4.315   4.363   4.524   4.545   4.570   4.574   4.584
303 A'  304 A'  305 A'  306 A'  307 A'  308 A'  309 A'  310 A'                 
  4.599   4.614   4.660   4.715   4.752   4.775   4.840   4.857
311 A'  312 A'  313 A'  314 A'  315 A'  316 A'  317 A'  143 A"                 
  4.858   4.891   4.931   4.946   5.094   5.178   5.191   5.228
318 A'  319 A'  320 A'  321 A'  322 A'  144 A"  323 A'  324 A'                 
  5.271   5.379
325 A'  326 A'                                                                 
 
 Beta MOs, Restricted
 -- Occupied --                  
-20.548 -11.322 -11.272 -11.260 -11.253 -11.248 -11.244 -11.244
  1 A'    2 A'    3 A'    4 A'    5 A'    6 A'    7 A'    8 A'                 
-11.242 -11.240 -11.239 -11.238 -11.236 -11.234 -11.233 -11.233
  9 A'   10 A'   11 A'   12 A'   13 A'   14 A'   15 A'   16 A'                 
-11.232 -11.231 -11.231 -11.229 -11.229 -11.229 -11.225 -11.225
 17 A'   18 A'   19 A'   20 A'    1 A"   21 A'    2 A"   22 A'                 
 -1.378  -1.180  -1.162  -1.137  -1.110  -1.064  -1.045  -1.035
 23 A'   24 A'   25 A'   26 A'   27 A'   28 A'   29 A'   30 A'                 
 -1.016  -1.016  -0.992  -0.972  -0.900  -0.857  -0.847  -0.841
  3 A"   31 A'   32 A'   33 A'   34 A'   35 A'    4 A"   36 A'                 
 -0.833  -0.816  -0.803  -0.779  -0.765  -0.705  -0.702  -0.698
 37 A'   38 A'   39 A'   40 A'   41 A'   42 A'   43 A'   44 A'                 
 -0.678  -0.663  -0.649  -0.629  -0.620  -0.619  -0.614  -0.613
 45 A'   46 A'   47 A'   48 A'   49 A'   50 A'   51 A'    5 A"                 
 -0.602  -0.593  -0.588  -0.578  -0.575  -0.565  -0.558  -0.539
 52 A'   53 A'   54 A'   55 A'   56 A'   57 A'    6 A"    7 A"                 
 -0.539  -0.535  -0.526  -0.515  -0.500  -0.497  -0.490  -0.482
 58 A'    8 A"    9 A"   59 A'   60 A'   10 A"   61 A'   11 A"                 
 -0.481  -0.470  -0.462  -0.451  -0.438  -0.430  -0.417  -0.380
 62 A'   63 A'   64 A'   12 A"   65 A'   13 A"   66 A'   14 A"                 
 -0.356  -0.317  -0.312  -0.287
 15 A"   16 A"   17 A"   18 A"                                                 
 -- Virtual --                   
  0.070   0.099   0.130   0.140   0.187   0.220   0.222   0.223
 19 A"   20 A"   21 A"   22 A"   23 A"   24 A"   67 A'   68 A'                 
  0.236   0.243   0.254   0.263   0.267   0.268   0.285   0.287
 69 A'   70 A'   71 A'   72 A'   25 A"   73 A'   26 A"   74 A'                 
  0.294   0.303   0.312   0.321   0.324   0.326   0.328   0.333
 75 A'   76 A'   77 A'   78 A'   79 A'   27 A"   80 A'   28 A"                 
  0.336   0.342   0.355   0.358   0.360   0.376   0.388   0.392
 81 A'   29 A"   82 A'   30 A"   83 A'   84 A'   85 A'   86 A'                 
  0.411   0.414   0.423   0.423   0.437   0.447   0.462   0.467
 31 A"   87 A'   88 A'   89 A'   90 A'   32 A"   91 A'   33 A"                 
  0.477   0.480   0.485   0.493   0.506   0.517   0.524   0.534
 34 A"   92 A'   93 A'   94 A'   95 A'   96 A'   97 A'   98 A'                 
  0.544   0.568   0.574   0.594   0.661   0.691   0.707   0.709
 99 A'  100 A'  101 A'  102 A'  103 A'  104 A'  105 A'  106 A'                 
  0.713   0.726   0.728   0.729   0.734   0.736   0.739   0.745
 35 A"  107 A'  108 A'   36 A"   37 A"   38 A"  109 A'  110 A'                 
  0.747   0.747   0.754   0.766   0.777   0.785   0.794   0.795
111 A'   39 A"  112 A'  113 A'  114 A'   40 A"  115 A'   41 A"                 
  0.798   0.804   0.812   0.816   0.817   0.827   0.828   0.833
116 A'  117 A'  118 A'   42 A"  119 A'   43 A"  120 A'  121 A'                 
  0.846   0.858   0.863   0.869   0.872   0.875   0.883   0.904
122 A'  123 A'   44 A"  124 A'   45 A"  125 A'  126 A'   46 A"                 
  0.909   0.912   0.922   0.929   0.940   0.949   0.950   0.971
 47 A"  127 A'   48 A"  128 A'  129 A'   49 A"   50 A"  130 A'                 
  0.978   0.983   0.990   1.028   1.030   1.040   1.051   1.055
 51 A"   52 A"  131 A'   53 A"   54 A"  132 A'  133 A'  134 A'                 
  1.058   1.060   1.066   1.069   1.071   1.077   1.080   1.081
135 A'   55 A"   56 A"  136 A'  137 A'  138 A'  139 A'   57 A"                 
  1.085   1.087   1.100   1.106   1.109   1.112   1.123   1.129
140 A'  141 A'  142 A'  143 A'   58 A"  144 A'  145 A'   59 A"                 
  1.131   1.138   1.146   1.151   1.163   1.166   1.180   1.185
146 A'  147 A'   60 A"  148 A'  149 A'  150 A'   61 A"  151 A'                 
  1.192   1.195   1.210   1.214   1.224   1.224   1.226   1.234
152 A'  153 A'  154 A'  155 A'   62 A"  156 A'  157 A'  158 A'                 
  1.243   1.253   1.270   1.282   1.285   1.307   1.310   1.327
159 A'  160 A'  161 A'  162 A'  163 A'   63 A"  164 A'  165 A'                 
  1.342   1.358   1.378   1.384   1.404   1.412   1.416   1.431
166 A'  167 A'  168 A'  169 A'  170 A'  171 A'   64 A"  172 A'                 
  1.448   1.467   1.478   1.484   1.502   1.512   1.519   1.520
173 A'  174 A'   65 A"  175 A'   66 A"   67 A"  176 A'   68 A"                 
  1.545   1.549   1.571   1.598   1.610   1.625   1.633   1.637
177 A'   69 A"  178 A'   70 A"  179 A'   71 A"   72 A"  180 A'                 
  1.647   1.653   1.660   1.667   1.671   1.678   1.686   1.693
 73 A"   74 A"   75 A"  181 A'  182 A'   76 A"   77 A"   78 A"                 
  1.701   1.711   1.716   1.732   1.735   1.767   1.783   1.791
 79 A"  183 A'  184 A'  185 A'   80 A"   81 A"  186 A'  187 A'                 
  1.799   1.809   1.829   1.859   1.896   1.911   1.941   1.966
 82 A"  188 A'  189 A'   83 A"  190 A'  191 A'   84 A"  192 A'                 
  1.984   1.985   2.033   2.047   2.049   2.053   2.075   2.087
 85 A"  193 A'  194 A'  195 A'   86 A"  196 A'  197 A'  198 A'                 
  2.096   2.100   2.107   2.113   2.115   2.133   2.140   2.147
 87 A"  199 A'  200 A'   88 A"  201 A'   89 A"  202 A'  203 A'                 
  2.148   2.169   2.176   2.185   2.189   2.199   2.199   2.205
 90 A"  204 A'  205 A'  206 A'   91 A"   92 A"  207 A'  208 A'                 
  2.209   2.221   2.228   2.235   2.240   2.245   2.253   2.255
 93 A"  209 A'  210 A'  211 A'  212 A'  213 A'  214 A'  215 A'                 
  2.273   2.276   2.277   2.290   2.301   2.304   2.319   2.335
 94 A"   95 A"  216 A'  217 A'   96 A"  218 A'  219 A'  220 A'                 
  2.338   2.357   2.395   2.396   2.400   2.403   2.417   2.436
 97 A"  221 A'  222 A'  223 A'  224 A'   98 A"  225 A'  226 A'                 
  2.444   2.449   2.458   2.468   2.483   2.497   2.512   2.518
227 A'   99 A"  100 A"  101 A"  228 A'  229 A'  102 A"  230 A'                 
  2.523   2.549   2.549   2.577   2.579   2.593   2.597   2.616
103 A"  231 A'  104 A"  232 A'  105 A"  106 A"  233 A'  234 A'                 
  2.625   2.631   2.637   2.643   2.662   2.662   2.665   2.676
235 A'  107 A"  236 A'  108 A"  237 A'  109 A"  110 A"  111 A"                 
  2.687   2.695   2.708   2.710   2.711   2.716   2.732   2.741
238 A'  239 A'  112 A"  113 A"  240 A'  114 A"  241 A'  115 A"                 
  2.745   2.751   2.761   2.770   2.778   2.784   2.797   2.812
242 A'  116 A"  117 A"  243 A'  244 A'  118 A"  245 A'  246 A'                 
  2.824   2.828   2.834   2.853   2.869   2.872   2.879   2.891
247 A'  119 A"  248 A'  120 A"  249 A'  121 A"  250 A'  251 A'                 
  2.893   2.910   2.914   2.922   2.923   2.928   2.938   2.953
122 A"  123 A"  252 A'  253 A'  124 A"  254 A'  125 A"  126 A"                 
  2.954   2.963   2.974   2.975   2.998   3.013   3.032   3.035
127 A"  255 A'  256 A'  128 A"  257 A'  129 A"  258 A'  130 A"                 
  3.044   3.065   3.073   3.078   3.096   3.098   3.109   3.116
259 A'  131 A"  260 A'  261 A'  262 A'  132 A"  133 A"  263 A'                 
  3.144   3.165   3.166   3.177   3.179   3.193   3.195   3.200
264 A'  265 A'  134 A"  266 A'  135 A"  267 A'  268 A'  269 A'                 
  3.224   3.238   3.259   3.269   3.288   3.301   3.323   3.356
136 A"  270 A'  137 A"  271 A'  138 A"  272 A'  273 A'  274 A'                 
  3.377   3.392   3.413   3.430   3.442   3.477   3.521   3.538
275 A'  276 A'  277 A'  278 A'  279 A'  280 A'  281 A'  282 A'                 
  3.550   3.605   3.630   3.631   3.637   3.659   3.660   3.683
283 A'  284 A'  285 A'  286 A'  287 A'  288 A'  289 A'  139 A"                 
  3.697   3.720   3.730   3.736   3.786   3.802   3.821   3.850
290 A'  140 A"  291 A'  292 A'  293 A'  294 A'  295 A'  141 A"                 
  3.874   3.887   3.889   3.914   3.917   3.930   3.992   4.170
296 A'  297 A'  298 A'  142 A"  299 A'  300 A'  301 A'  302 A'                 
  4.201   4.315   4.363   4.524   4.545   4.570   4.574   4.584
303 A'  304 A'  305 A'  306 A'  307 A'  308 A'  309 A'  310 A'                 
  4.599   4.614   4.660   4.715   4.752   4.775   4.840   4.857
311 A'  312 A'  313 A'  314 A'  315 A'  316 A'  317 A'  143 A"                 
  4.858   4.891   4.931   4.946   5.094   5.178   5.191   5.228
318 A'  319 A'  320 A'  321 A'  322 A'  144 A"  323 A'  324 A'                 
  5.271   5.379
325 A'  326 A'                                                                 
 --------------------------------------------------------------
 
          Ground-State Mulliken Net Atomic Charges

     Atom                 Charge (a.u.)
  ----------------------------------------
      1 C                    -0.001482
      2 H                     0.145916
      3 C                    -0.135667
      4 C                    -0.124047
      5 C                    -0.029640
      6 C                    -0.168252
      7 C                    -0.040332
      8 C                    -0.127162
      9 H                     0.147157
     10 H                     0.152012
     11 H                     0.153482
     12 C                    -0.157774
     13 H                     0.149613
     14 H                     0.150576
     15 C                    -0.160449
     16 H                     0.150660
     17 C                    -0.124162
     18 C                    -0.150080
     19 C                    -0.206783
     20 C                    -0.206783
     21 C                    -0.161423
     22 C                    -0.202430
     23 C                    -0.202430
     24 H                     0.111790
     25 H                     0.111790
     26 H                     0.124545
     27 H                     0.108997
     28 H                     0.108997
     29 H                     0.118549
     30 H                     0.127306
     31 H                     0.127306
     32 H                     0.128114
     33 H                     0.128114
     34 C                     0.026462
     35 C                    -0.180182
     36 C                    -0.154142
     37 C                    -0.174250
     38 C                    -0.109036
     39 C                    -0.086289
     40 H                     0.153299
     41 H                     0.151011
     42 H                     0.165268
     43 H                     0.197551
     44 C                     0.396354
     45 H                     0.107146
     46 O                    -0.539220
  ----------------------------------------
  Sum of atomic charges =     0.000000

 -----------------------------------------------------------------
                    Cartesian Multipole Moments
 -----------------------------------------------------------------
    Charge (ESU x 10^10)
                 0.0000
    Dipole Moment (Debye)
         X       3.7629      Y       2.1001      Z       0.0000
       Tot       4.3093
    Quadrupole Moments (Debye-Ang)
        XX    -178.0874     XY     -18.7042     YY    -128.7681
        XZ       0.0000     YZ       0.0000     ZZ    -148.8379
    Octopole Moments (Debye-Ang^2)
       XXX     487.3395    XXY     155.6591    XYY       1.4311
       YYY       1.6525    XXZ       0.0000    XYZ       0.0000
       YYZ       0.0000    XZZ     -28.8744    YZZ      -2.5796
       ZZZ       0.0000
    Hexadecapole Moments (Debye-Ang^3)
      XXXX  -21830.7246   XXXY   -1283.3744   XXYY   -3065.1745
      XYYY      -3.8011   YYYY   -1061.7532   XXXZ       0.0000
      XXYZ       0.0000   XYYZ       0.0000   YYYZ       0.0000
      XXZZ   -3459.9718   XYZZ       7.9086   YYZZ    -292.4679
      XZZZ       0.0000   YZZZ       0.0000   ZZZZ    -463.9836
 -----------------------------------------------------------------
 Calculating MO derivatives via CPSCF
   1         3         138      0.157907    0.021016
   2         3         138      0.032283    0.005640
   3         3         138      0.006347    0.001398
   4        12         129      0.000919    0.000209
   5       119          22      0.000065    0.000023
   6       139           2      0.000004    0.000003
   7       141           0      0.000000    0.000000    Roots Converged
 Calculating CIS amplitude derivatives via CPCIS
 CIS relaxed dipole moment
            1
    1  -0.2689164
    2  -0.0173622
    3   0.0000000
	Magnitude:	 0.269 au	 0.685 Debye
 CIS Excitation Energy is    0.0939486659
 Gradient of the CIS Excitation Energy
            1           2           3           4           5           6
    1   0.0001132   0.0000148  -0.0000630   0.0000044   0.0000512  -0.0000761
    2   0.0000260   0.0000289  -0.0000068   0.0000080   0.0000118  -0.0000370
    3   0.0000000  -0.0000000  -0.0000000   0.0000000   0.0000000  -0.0000000
            7           8           9          10          11          12
    1  -0.0000313  -0.0000258   0.0000104  -0.0000055  -0.0000159  -0.0000069
    2   0.0000159   0.0000141  -0.0000096   0.0000069   0.0000085   0.0000036
    3   0.0000000  -0.0000000  -0.0000000   0.0000000   0.0000000  -0.0000000
           13          14          15          16          17          18
    1   0.0000073  -0.0000078  -0.0000197  -0.0000108   0.0000198   0.0000466
    2   0.0000002  -0.0000087  -0.0000074  -0.0000010  -0.0000217  -0.0001384
    3  -0.0000000  -0.0000000  -0.0000000   0.0000000   0.0000000  -0.0000000
           19          20          21          22          23          24
    1  -0.0014644  -0.0014644   0.0045679  -0.0000918  -0.0000918  -0.0000598
    2  -0.0007022  -0.0007022   0.0012079   0.0006323   0.0006323   0.0003212
    3   0.0007386  -0.0007386  -0.0000000   0.0006161  -0.0006161  -0.0001041
           25          26          27          28          29          30
    1  -0.0000598  -0.0006007   0.0000499   0.0000499  -0.0000006  -0.0000221
    2   0.0003212  -0.0003359  -0.0000412  -0.0000412   0.0000198  -0.0000787
    3   0.0001041  -0.0000000  -0.0000342   0.0000342   0.0000000  -0.0000857
           31          32          33          34          35          36
    1  -0.0000221  -0.0003382  -0.0003382  -0.0510630   0.0734074   0.0424066
    2  -0.0000787   0.0000158   0.0000158   0.0036431   0.0041458   0.0309594
    3   0.0000857   0.0000479  -0.0000479   0.0000000  -0.0000000  -0.0000000
           37          38          39          40          41          42
    1   0.0530367  -0.0492164  -0.0476245   0.0008831   0.0010573  -0.0002657
    2  -0.0329968  -0.0550809   0.0516639   0.0002361  -0.0003880   0.0008562
    3  -0.0000000   0.0000000  -0.0000000   0.0000000  -0.0000000  -0.0000000
           43          44          45          46
    1  -0.0005221  -0.0316940  -0.0009414   0.0104169
    2  -0.0008058  -0.0312378   0.0012232   0.0267024
    3   0.0000000  -0.0000000  -0.0000000  -0.0000000
gradient:-0.000115
gradient:-0.000026
gradient:-0.000000
gradient:-0.000015
gradient:-0.000029
gradient:0.000000
gradient:0.000065
gradient:0.000006
gradient:0.000000
gradient:-0.000004
gradient:-0.000006
gradient:0.000000
gradient:-0.000050
gradient:-0.000012
gradient:-0.000000
gradient:0.000076
gradient:0.000039
gradient:0.000000
gradient:0.000030
gradient:-0.000016
gradient:-0.000000
gradient:0.000026
gradient:-0.000017
gradient:0.000000
gradient:-0.000010
gradient:0.000010
gradient:-0.000000
gradient:0.000006
gradient:-0.000008
gradient:0.000000
gradient:0.000016
gradient:-0.000009
gradient:0.000000
gradient:0.000006
gradient:-0.000005
gradient:-0.000000
gradient:-0.000007
gradient:-0.000001
gradient:0.000000
gradient:0.000008
gradient:0.000009
gradient:-0.000000
gradient:0.000018
gradient:0.000008
gradient:0.000000
gradient:0.000011
gradient:0.000001
gradient:-0.000000
gradient:-0.000022
gradient:0.000023
gradient:0.000000
gradient:-0.000045
gradient:0.000134
gradient:-0.000000
gradient:0.001467
gradient:0.000705
gradient:-0.000743
gradient:0.001467
gradient:0.000705
gradient:0.000743
gradient:-0.004560
gradient:-0.001218
gradient:-0.000000
gradient:0.000089
gradient:-0.000631
gradient:-0.000617
gradient:0.000089
gradient:-0.000631
gradient:0.000617
gradient:0.000061
gradient:-0.000322
gradient:0.000104
gradient:0.000061
gradient:-0.000322
gradient:-0.000104
gradient:0.000604
gradient:0.000336
gradient:-0.000000
gradient:-0.000050
gradient:0.000041
gradient:0.000035
gradient:-0.000050
gradient:0.000041
gradient:-0.000035
gradient:0.000001
gradient:-0.000020
gradient:-0.000000
gradient:0.000024
gradient:0.000079
gradient:0.000085
gradient:0.000024
gradient:0.000079
gradient:-0.000085
gradient:0.000338
gradient:-0.000015
gradient:-0.000047
gradient:0.000338
gradient:-0.000015
gradient:0.000047
gradient:0.051058
gradient:-0.003627
gradient:-0.000000
gradient:-0.073374
gradient:-0.004139
gradient:-0.000000
gradient:-0.042429
gradient:-0.030962
gradient:0.000000
gradient:-0.053032
gradient:0.032987
gradient:0.000000
gradient:0.049217
gradient:0.055072
gradient:-0.000000
gradient:0.047649
gradient:-0.051665
gradient:0.000000
gradient:-0.000886
gradient:-0.000238
gradient:-0.000000
gradient:-0.001057
gradient:0.000392
gradient:0.000000
gradient:0.000261
gradient:-0.000852
gradient:0.000000
gradient:0.000519
gradient:0.000803
gradient:-0.000000
gradient:0.031685
gradient:0.031266
gradient:0.000000
gradient:0.000934
gradient:-0.001220
gradient:0.000000
gradient:-0.010440
gradient:-0.026733
gradient:0.000000
gradient:-0.269138
gradient:-0.017240
gradient:0.000000
   1        23         118      0.016566    0.003894
   2        60          81      0.003147    0.000493
   3        94          47      0.000616    0.000072
   4       110          31      0.000131    0.000015
   5       132           9      0.000018    0.000003
   6       141           0      0.000000    0.000000    Roots Converged
 CPCIS time:  CPU 6768.23 s  wall 6838.24 s
 transition dipole derivative
            1           2           3
    1   0.0035075  -0.0216432  -0.0000000
    2   0.0178089  -0.0539148   0.0000000
    3   0.0000000   0.0000000  -0.0017194
    4   0.0005391   0.0006504   0.0000000
    5   0.0015716  -0.0000102   0.0000000
    6  -0.0000000  -0.0000000  -0.0004447
    7   0.0011087   0.0244395   0.0000000
    8  -0.0075965   0.0411095   0.0000000
    9  -0.0000000  -0.0000000   0.0028473
   10  -0.0273200   0.0175866  -0.0000000
   11  -0.0040577  -0.0089531  -0.0000000
   12  -0.0000000  -0.0000000  -0.0024218
   13  -0.0087896  -0.0047745  -0.0000000
   14  -0.0053822   0.0002116  -0.0000000
   15  -0.0000000  -0.0000000  -0.0018050
   16   0.0275657  -0.0323443   0.0000000
   17  -0.0099374   0.0114471  -0.0000000
   18  -0.0000000   0.0000000   0.0021128
   19   0.0063881   0.0138558   0.0000000
   20   0.0055000   0.0063571   0.0000000
   21   0.0000000   0.0000000   0.0018908
   22   0.0262069  -0.0257865   0.0000000
   23   0.0069064   0.0027227  -0.0000000
   24   0.0000000  -0.0000000   0.0021214
   25   0.0007282  -0.0001703   0.0000000
   26  -0.0007779   0.0000343  -0.0000000
   27  -0.0000000  -0.0000000  -0.0001839
   28  -0.0001266  -0.0004895  -0.0000000
   29   0.0003542   0.0001175   0.0000000
   30   0.0000000  -0.0000000   0.0002428
   31  -0.0008874  -0.0000866  -0.0000000
   32   0.0002196   0.0005140   0.0000000
   33   0.0000000   0.0000000   0.0002832
   34  -0.0304446   0.0377196  -0.0000000
   35   0.0074385  -0.0146862   0.0000000
   36   0.0000000   0.0000000  -0.0018617
   37   0.0004873   0.0000820   0.0000000
   38   0.0003106  -0.0005589  -0.0000000
   39   0.0000000  -0.0000000  -0.0002517
   40  -0.0005433   0.0000437   0.0000000
   41  -0.0001670  -0.0005512  -0.0000000
   42   0.0000000  -0.0000000   0.0001756
   43   0.0001008   0.0101046  -0.0000000
   44  -0.0168912   0.0497647  -0.0000000
   45  -0.0000000  -0.0000000   0.0019711
   46  -0.0006006  -0.0003771  -0.0000000
   47  -0.0002643   0.0005034   0.0000000
   48  -0.0000000  -0.0000000  -0.0002251
   49  -0.0005587  -0.0260012   0.0000000
   50   0.0062273  -0.0334537  -0.0000000
   51   0.0000000  -0.0000000  -0.0021203
   52   0.0003450  -0.0012711   0.0000000
   53  -0.0039402   0.0002239  -0.0000000
   54  -0.0000000  -0.0000000  -0.0016869
   55   0.0202186  -0.0489550  -0.0033742
   56  -0.0658034   0.0156521  -0.0221964
   57   0.0947838  -0.0208500   0.0788644
   58   0.0202186  -0.0489550   0.0033742
   59  -0.0658034   0.0156521   0.0221964
   60  -0.0947838   0.0208500   0.0788644
   61  -0.3826789   0.0878355   0.0000000
   62   0.1129338  -0.0234146  -0.0000000
   63  -0.0000000  -0.0000000  -0.2583048
   64   0.0280566   0.0086155  -0.0022682
   65   0.0105610  -0.0060217  -0.0071277
   66   0.0188291   0.0051761  -0.0118922
   67   0.0280566   0.0086155   0.0022682
   68   0.0105610  -0.0060217   0.0071277
   69  -0.0188291  -0.0051761  -0.0118922
   70   0.0033938   0.0142266   0.0001875
   71   0.0022832  -0.0254720   0.0031754
   72  -0.0000988   0.0142124  -0.0036152
   73   0.0033938   0.0142266  -0.0001875
   74   0.0022832  -0.0254720  -0.0031754
   75   0.0000988  -0.0142124  -0.0036152
   76  -0.0009534  -0.0465094   0.0000000
   77  -0.0041844  -0.0239876  -0.0000000
   78   0.0000000  -0.0000000   0.0010056
   79  -0.0025108  -0.0059413  -0.0000705
   80  -0.0025195  -0.0024428   0.0006202
   81  -0.0010268   0.0002145   0.0001649
   82  -0.0025108  -0.0059413   0.0000705
   83  -0.0025195  -0.0024428  -0.0006202
   84   0.0010268  -0.0002145   0.0001649
   85   0.0001674   0.0009784  -0.0000000
   86   0.0004316  -0.0011436   0.0000000
   87  -0.0000000   0.0000000   0.0003025
   88   0.0067773  -0.0032149  -0.0028017
   89  -0.0007829   0.0056385  -0.0011082
   90  -0.0066493  -0.0045202  -0.0053895
   91   0.0067773  -0.0032149   0.0028017
   92  -0.0007829   0.0056385   0.0011082
   93   0.0066493   0.0045202  -0.0053895
   94  -0.0069930  -0.0016019   0.0024082
   95  -0.0018894   0.0016039   0.0013936
   96  -0.0029064   0.0005841   0.0032905
   97  -0.0069930  -0.0016019  -0.0024082
   98  -0.0018894   0.0016039  -0.0013936
   99   0.0029064  -0.0005841   0.0032905
  100   1.4613424  -0.3213606  -0.0000000
  101   0.0924639   3.8545178  -0.0000000
  102   0.0000000   0.0000000   0.9498142
  103  -2.1900205  -0.4769326  -0.0000000
  104  -0.1253058  -2.9426714  -0.0000000
  105   0.0000000  -0.0000000  -0.8993655
  106  -2.6501321  -1.2688294   0.0000000
  107  -0.7260510  -1.7422507  -0.0000000
  108   0.0000000  -0.0000000  -0.6251310
  109  -2.6016951   1.3598917  -0.0000000
  110   0.5076925  -1.8982784  -0.0000000
  111  -0.0000000   0.0000000  -0.6211024
  112   2.6844389   0.6837474   0.0000000
  113   0.6655996   1.5141082   0.0000000
  114  -0.0000000   0.0000000   0.6574833
  115   2.7208839  -0.3603851  -0.0000000
  116  -0.4120931   1.5656968   0.0000000
  117  -0.0000000   0.0000000   0.6653189
  118   0.0064625  -0.0231800  -0.0000000
  119  -0.0136953   0.0004871   0.0000000
  120   0.0000000  -0.0000000   0.0767983
  121   0.0098502   0.0382927  -0.0000000
  122   0.0141371  -0.0016342   0.0000000
  123  -0.0000000   0.0000000   0.0813552
  124   0.0000147   0.0076619  -0.0000000
  125   0.0044220  -0.0357336  -0.0000000
  126  -0.0000000   0.0000000  -0.0879406
  127  -0.0042921  -0.0061629  -0.0000000
  128  -0.0123551  -0.0447598   0.0000000
  129  -0.0000000   0.0000000  -0.0857479
  130   1.5605829   1.0237824   0.0000000
  131   1.0177287   1.0100646   0.0000000
  132   0.0000000   0.0000000   0.2982922
  133   0.0244906  -0.0066471  -0.0000000
  134  -0.0042005  -0.0458577   0.0000000
  135   0.0000000   0.0000000  -0.0446894
  136  -0.7340532  -0.6099789  -0.0000000
  137  -0.9985445  -1.1639365  -0.0000000
  138  -0.0000000  -0.0000000  -0.2298591
mem use when entering cis_hess,0,625000000
mem use when entering PV,0,625000000
mem use when entering PT + WS,0,625000000
mem use when entering II^xy,0,625000000
mem use when entering PCM,0,625000000
mem use when entering E^xy,0,625000000
mem use when entering PF,0,625000000
mem use when entering ws,0,625000000
mem use when entering RPA_Hess_IIx,0,625000000
Nshell = 162 
s2Bra.ftnCode() = 360011 
 hess cis_hess_iirx
            1           2           3           4           5           6
    1  -0.0000551   0.0000039   0.0000000  -0.0000003   0.0000004  -0.0000000
    2   0.0000039  -0.0000056  -0.0000000   0.0000001  -0.0000001   0.0000000
    3   0.0000000  -0.0000000  -0.0013569  -0.0000000  -0.0000000   0.0000300
    4  -0.0000003   0.0000001  -0.0000000  -0.0000002   0.0000002   0.0000000
    5   0.0000004  -0.0000001  -0.0000000   0.0000002  -0.0000004   0.0000000
    6  -0.0000000   0.0000000   0.0000300   0.0000000   0.0000000  -0.0000082
    7   0.0000089  -0.0000016  -0.0000000   0.0000003  -0.0000005   0.0000000
    8   0.0000050   0.0000000   0.0000000  -0.0000001   0.0000003  -0.0000000
    9  -0.0000000   0.0000000   0.0003991  -0.0000000   0.0000000  -0.0000120
   10  -0.0000002  -0.0000030   0.0000000   0.0000000  -0.0000000  -0.0000000
   11   0.0000004   0.0000001   0.0000000  -0.0000000  -0.0000000  -0.0000000
   12   0.0000000   0.0000000  -0.0000125  -0.0000000  -0.0000000   0.0000006
   13   0.0000039   0.0000019   0.0000000   0.0000001  -0.0000001   0.0000000
   14   0.0000001  -0.0000002   0.0000000   0.0000000  -0.0000001   0.0000000
   15   0.0000000  -0.0000000  -0.0002162  -0.0000000  -0.0000000   0.0000117
   16   0.0000072   0.0000015  -0.0000000   0.0000000  -0.0000000   0.0000000
   17  -0.0000035   0.0000022   0.0000000  -0.0000001   0.0000001  -0.0000000
   18  -0.0000000   0.0000000   0.0001841   0.0000000   0.0000000  -0.0000054
   19  -0.0000021   0.0000001   0.0000000   0.0000000  -0.0000000  -0.0000000
   20   0.0000008   0.0000016  -0.0000000   0.0000000  -0.0000000   0.0000000
   21  -0.0000000  -0.0000000  -0.0000131   0.0000000  -0.0000000   0.0000018
   22   0.0000004   0.0000003   0.0000000  -0.0000000   0.0000000  -0.0000000
   23  -0.0000008  -0.0000013   0.0000000  -0.0000000   0.0000000  -0.0000000
   24  -0.0000000   0.0000000   0.0000315   0.0000000   0.0000000  -0.0000034
   25  -0.0000000  -0.0000001   0.0000000  -0.0000000   0.0000000  -0.0000000
   26  -0.0000002   0.0000000  -0.0000000  -0.0000000   0.0000000   0.0000000
   27  -0.0000000   0.0000000   0.0000140   0.0000000   0.0000000  -0.0000001
   28  -0.0000001   0.0000000   0.0000000  -0.0000000  -0.0000000   0.0000000
   29   0.0000000  -0.0000000   0.0000000   0.0000000  -0.0000000  -0.0000000
   30  -0.0000000   0.0000000   0.0000001  -0.0000000   0.0000000   0.0000000
   31   0.0000000  -0.0000000   0.0000000  -0.0000000  -0.0000000  -0.0000000
   32  -0.0000000   0.0000000  -0.0000000  -0.0000000   0.0000000   0.0000000
   33  -0.0000000  -0.0000000   0.0000044  -0.0000000   0.0000000  -0.0000002
   34  -0.0000009  -0.0000008  -0.0000000   0.0000000  -0.0000000  -0.0000000
   35   0.0000001  -0.0000009   0.0000000   0.0000000   0.0000000  -0.0000000
   36  -0.0000000  -0.0000000  -0.0000120   0.0000000   0.0000000  -0.0000004
   37   0.0000000  -0.0000000  -0.0000000   0.0000000   0.0000000   0.0000000
   38   0.0000000   0.0000000  -0.0000000  -0.0000000   0.0000000   0.0000000
   39  -0.0000000   0.0000000   0.0000038   0.0000000   0.0000000  -0.0000004
   40  -0.0000000   0.0000000   0.0000000   0.0000000  -0.0000000  -0.0000000
   41  -0.0000000   0.0000000   0.0000000  -0.0000000   0.0000000   0.0000000
   42  -0.0000000   0.0000000  -0.0000001   0.0000000  -0.0000000   0.0000000
   43  -0.0000014  -0.0000014  -0.0000000   0.0000000  -0.0000000  -0.0000000
   44  -0.0000007  -0.0000004  -0.0000000   0.0000000  -0.0000000   0.0000000
   45   0.0000000  -0.0000000  -0.0000089  -0.0000000  -0.0000000   0.0000005
   46  -0.0000000   0.0000000   0.0000000   0.0000000  -0.0000000  -0.0000000
   47  -0.0000000  -0.0000000   0.0000000  -0.0000000  -0.0000000  -0.0000000
   48   0.0000000  -0.0000000  -0.0000023  -0.0000000  -0.0000000   0.0000002
   49  -0.0000005  -0.0000007  -0.0000000  -0.0000000   0.0000000   0.0000000
   50   0.0000004   0.0000011   0.0000000  -0.0000000   0.0000000  -0.0000000
   51   0.0000000  -0.0000000  -0.0000159  -0.0000000  -0.0000000   0.0000020
   52  -0.0000643   0.0000028  -0.0000000  -0.0000003   0.0000006   0.0000000
   53  -0.0000050   0.0000051  -0.0000000  -0.0000001  -0.0000000   0.0000000
   54  -0.0000000   0.0000000   0.0010324   0.0000000   0.0000000  -0.0000182
   55   0.0001620  -0.0000122   0.0004473  -0.0000001   0.0000001  -0.0000059
   56  -0.0000525   0.0000042   0.0000564   0.0000000   0.0000001   0.0000013
   57   0.0000388  -0.0000032  -0.0001118   0.0000001  -0.0000001   0.0000009
   58   0.0001620  -0.0000122  -0.0004473  -0.0000001   0.0000001   0.0000059
   59  -0.0000525   0.0000042  -0.0000564   0.0000000   0.0000001  -0.0000013
   60  -0.0000388   0.0000032  -0.0001118  -0.0000001   0.0000001   0.0000009
   61  -0.0000001  -0.0000005  -0.0000000   0.0000101   0.0000229   0.0000000
   62  -0.0000115   0.0000019   0.0000000  -0.0000007  -0.0000017  -0.0000000
   63  -0.0000000   0.0000000   0.0071340   0.0000000  -0.0000000  -0.0000443
   64  -0.0000243   0.0000043  -0.0000933  -0.0000002  -0.0000011  -0.0000010
   65   0.0000396  -0.0000041   0.0001162   0.0000002   0.0000004  -0.0000005
   66   0.0000369  -0.0000028   0.0000657   0.0000002   0.0000004   0.0000006
   67  -0.0000243   0.0000043   0.0000933  -0.0000002  -0.0000011   0.0000010
   68   0.0000396  -0.0000041  -0.0001162   0.0000002   0.0000004   0.0000005
   69  -0.0000369   0.0000028   0.0000657  -0.0000002  -0.0000004   0.0000006
   70   0.0000109  -0.0000011  -0.0000417   0.0000000  -0.0000001   0.0000000
   71  -0.0000019   0.0000003  -0.0000068   0.0000000   0.0000001  -0.0000002
   72  -0.0000054   0.0000003   0.0000450   0.0000001   0.0000001  -0.0000006
   73   0.0000109  -0.0000011   0.0000417   0.0000000  -0.0000001  -0.0000000
   74  -0.0000019   0.0000003   0.0000068   0.0000000   0.0000001   0.0000002
   75   0.0000054  -0.0000003   0.0000450  -0.0000001  -0.0000001  -0.0000006
   76   0.0000015  -0.0000002  -0.0000000   0.0000001  -0.0000000   0.0000000
   77  -0.0000004   0.0000000   0.0000000   0.0000001   0.0000001   0.0000000
   78  -0.0000000  -0.0000000   0.0001545   0.0000000   0.0000000  -0.0000035
   79   0.0000018  -0.0000003  -0.0000048  -0.0000000  -0.0000000   0.0000003
   80  -0.0000027   0.0000003  -0.0000059  -0.0000000  -0.0000000  -0.0000002
   81  -0.0000004  -0.0000000   0.0000011  -0.0000000   0.0000000   0.0000001
   82   0.0000018  -0.0000003   0.0000048  -0.0000000  -0.0000000  -0.0000003
   83  -0.0000027   0.0000003   0.0000059  -0.0000000  -0.0000000   0.0000002
   84   0.0000004   0.0000000   0.0000011   0.0000000  -0.0000000   0.0000001
   85   0.0000011  -0.0000002   0.0000000   0.0000000  -0.0000000  -0.0000000
   86  -0.0000004  -0.0000001   0.0000000  -0.0000000   0.0000000  -0.0000000
   87  -0.0000000   0.0000000  -0.0000043  -0.0000000  -0.0000000  -0.0000000
   88  -0.0000066   0.0000002   0.0003454   0.0000000  -0.0000004  -0.0000025
   89   0.0000014  -0.0000001  -0.0000008  -0.0000000  -0.0000000   0.0000001
   90  -0.0000001   0.0000004   0.0000822   0.0000001   0.0000000  -0.0000008
   91  -0.0000066   0.0000002  -0.0003454   0.0000000  -0.0000004   0.0000025
   92   0.0000014  -0.0000001   0.0000008  -0.0000000  -0.0000000  -0.0000001
   93   0.0000001  -0.0000004   0.0000822  -0.0000001  -0.0000000  -0.0000008
   94  -0.0000111   0.0000016  -0.0000031   0.0000000   0.0000003   0.0000002
   95  -0.0000019   0.0000003   0.0000042  -0.0000000  -0.0000000  -0.0000001
   96   0.0000012  -0.0000004   0.0000009  -0.0000000  -0.0000001   0.0000001
   97  -0.0000111   0.0000016   0.0000031   0.0000000   0.0000003  -0.0000002
   98  -0.0000019   0.0000003  -0.0000042  -0.0000000  -0.0000000   0.0000001
   99  -0.0000012   0.0000004   0.0000009   0.0000000   0.0000001   0.0000001
  100  -0.0001733   0.0000007  -0.0000000  -0.0000168  -0.0000366  -0.0000000
  101   0.0000306  -0.0000121  -0.0000000   0.0000015   0.0000013   0.0000000
  102   0.0000000   0.0000000  -0.0053197   0.0000000   0.0000000   0.0000259
  103  -0.0000882  -0.0000188  -0.0000000  -0.0000110  -0.0000242  -0.0000000
  104   0.0000029  -0.0000063  -0.0000000   0.0000006  -0.0000001  -0.0000000
  105  -0.0000000  -0.0000000   0.0008808  -0.0000000   0.0000000  -0.0000025
  106   0.0000306   0.0000149   0.0000000   0.0000039   0.0000093  -0.0000000
  107   0.0000473   0.0000177   0.0000000   0.0000072   0.0000159  -0.0000000
  108  -0.0000000  -0.0000000   0.0022717   0.0000000  -0.0000000  -0.0000009
  109   0.0000015   0.0000048   0.0000000   0.0000056   0.0000100  -0.0000000
  110  -0.0000364  -0.0000083  -0.0000000  -0.0000095  -0.0000187   0.0000000
  111   0.0000000  -0.0000000  -0.0024287  -0.0000000  -0.0000000   0.0000182
  112   0.0000096   0.0000082   0.0000000   0.0000003   0.0000021   0.0000000
  113   0.0000196   0.0000060  -0.0000000   0.0000016   0.0000039   0.0000000
  114   0.0000000   0.0000000  -0.0017239  -0.0000000  -0.0000000   0.0000037
  115  -0.0000036  -0.0000060  -0.0000000   0.0000011   0.0000013  -0.0000000
  116  -0.0000139  -0.0000016   0.0000000  -0.0000008  -0.0000011  -0.0000000
  117  -0.0000000  -0.0000000  -0.0008742   0.0000000   0.0000000   0.0000056
  118   0.0000001  -0.0000000   0.0000000   0.0000000   0.0000000  -0.0000000
  119   0.0000005  -0.0000002   0.0000000   0.0000000  -0.0000000  -0.0000000
  120   0.0000000  -0.0000000  -0.0000609   0.0000000  -0.0000000  -0.0000023
  121   0.0000003  -0.0000001  -0.0000000   0.0000000   0.0000000  -0.0000000
  122  -0.0000004   0.0000002   0.0000000  -0.0000000   0.0000000  -0.0000000
  123  -0.0000000  -0.0000000  -0.0001005   0.0000000   0.0000000   0.0000005
  124   0.0000003   0.0000000   0.0000000   0.0000000   0.0000000   0.0000000
  125  -0.0000006  -0.0000001  -0.0000000  -0.0000000  -0.0000001   0.0000000
  126   0.0000000   0.0000000  -0.0001174   0.0000000  -0.0000000  -0.0000001
  127  -0.0000002   0.0000001   0.0000000   0.0000000   0.0000000  -0.0000000
  128  -0.0000003   0.0000002   0.0000000   0.0000000   0.0000001  -0.0000000
  129   0.0000000   0.0000000   0.0000613   0.0000000  -0.0000000   0.0000002
  130   0.0000906   0.0000152   0.0000000   0.0000116   0.0000254  -0.0000000
  131   0.0000445   0.0000071   0.0000000   0.0000057   0.0000119  -0.0000000
  132  -0.0000000   0.0000000  -0.0001713   0.0000000   0.0000000   0.0000002
  133   0.0000002   0.0000000   0.0000000   0.0000000   0.0000001  -0.0000000
  134  -0.0000003  -0.0000000  -0.0000000  -0.0000000  -0.0000001   0.0000000
  135   0.0000000   0.0000000  -0.0000275  -0.0000000  -0.0000000   0.0000001
  136  -0.0000314  -0.0000059  -0.0000000  -0.0000041  -0.0000085   0.0000000
  137  -0.0000461  -0.0000080  -0.0000000  -0.0000060  -0.0000125   0.0000000
  138   0.0000000   0.0000000   0.0000986  -0.0000000  -0.0000000  -0.0000002
            7           8           9          10          11          12
    1   0.0000089   0.0000050  -0.0000000  -0.0000002   0.0000004   0.0000000
    2  -0.0000016   0.0000000   0.0000000  -0.0000030   0.0000001   0.0000000
    3  -0.0000000   0.0000000   0.0003991   0.0000000   0.0000000  -0.0000125
    4   0.0000003  -0.0000001  -0.0000000   0.0000000  -0.0000000  -0.0000000
    5  -0.0000005   0.0000003   0.0000000  -0.0000000  -0.0000000  -0.0000000
    6   0.0000000  -0.0000000  -0.0000120  -0.0000000  -0.0000000   0.0000006
    7  -0.0000090  -0.0000014   0.0000000  -0.0000001  -0.0000003  -0.0000000
    8  -0.0000014  -0.0000022  -0.0000000   0.0000014  -0.0000010   0.0000000
    9   0.0000000  -0.0000000  -0.0003967   0.0000000  -0.0000000  -0.0000275
   10  -0.0000001   0.0000014   0.0000000  -0.0000023  -0.0000010  -0.0000000
   11  -0.0000003  -0.0000010  -0.0000000  -0.0000010  -0.0000018  -0.0000000
   12  -0.0000000   0.0000000  -0.0000275  -0.0000000  -0.0000000  -0.0000893
   13   0.0000023  -0.0000012  -0.0000000  -0.0000011  -0.0000006  -0.0000000
   14  -0.0000000   0.0000010  -0.0000000   0.0000003  -0.0000004   0.0000000
   15  -0.0000000   0.0000000   0.0003162  -0.0000000  -0.0000000   0.0000346
   16  -0.0000005  -0.0000019   0.0000000   0.0000001   0.0000008   0.0000000
   17   0.0000001  -0.0000001  -0.0000000   0.0000000   0.0000010  -0.0000000
   18   0.0000000  -0.0000000  -0.0000608   0.0000000   0.0000000   0.0000515
   19   0.0000000   0.0000013  -0.0000000   0.0000018   0.0000003   0.0000000
   20   0.0000004  -0.0000001   0.0000000   0.0000004   0.0000014   0.0000000
   21  -0.0000000   0.0000000  -0.0000191   0.0000000   0.0000000   0.0000408
   22  -0.0000005  -0.0000012   0.0000000  -0.0000009   0.0000008   0.0000000
   23   0.0000003   0.0000006  -0.0000000   0.0000005   0.0000002  -0.0000000
   24   0.0000000  -0.0000000  -0.0000516   0.0000000  -0.0000000  -0.0000046
   25   0.0000000   0.0000000  -0.0000000  -0.0000000  -0.0000001   0.0000000
   26   0.0000001   0.0000000   0.0000000   0.0000000  -0.0000000  -0.0000000
   27   0.0000000  -0.0000000  -0.0000040   0.0000000  -0.0000000   0.0000012
   28   0.0000000   0.0000000   0.0000000  -0.0000000   0.0000000   0.0000000
   29  -0.0000000  -0.0000000  -0.0000000   0.0000000   0.0000000  -0.0000000
   30  -0.0000000  -0.0000000   0.0000002   0.0000000  -0.0000000  -0.0000009
   31  -0.0000000   0.0000000  -0.0000000   0.0000000  -0.0000001  -0.0000000
   32  -0.0000000  -0.0000000   0.0000000  -0.0000000   0.0000002  -0.0000000
   33  -0.0000000  -0.0000000  -0.0000030  -0.0000000  -0.0000000  -0.0000015
   34   0.0000002   0.0000016  -0.0000000   0.0000012  -0.0000010  -0.0000000
   35   0.0000002   0.0000002  -0.0000000   0.0000003   0.0000003   0.0000000
   36   0.0000000   0.0000000   0.0000137  -0.0000000  -0.0000000   0.0000033
   37   0.0000000  -0.0000000   0.0000000   0.0000000   0.0000000   0.0000000
   38  -0.0000000  -0.0000000   0.0000000  -0.0000000   0.0000000   0.0000000
   39   0.0000000  -0.0000000  -0.0000080   0.0000000  -0.0000000  -0.0000009
   40   0.0000000   0.0000000  -0.0000000  -0.0000000  -0.0000000   0.0000000
   41   0.0000000  -0.0000000  -0.0000000  -0.0000000   0.0000000  -0.0000000
   42   0.0000000  -0.0000000   0.0000003   0.0000000  -0.0000000   0.0000004
   43   0.0000010   0.0000014  -0.0000000   0.0000006  -0.0000003  -0.0000000
   44   0.0000000   0.0000014   0.0000000   0.0000009  -0.0000010   0.0000000
   45  -0.0000000   0.0000000   0.0000163  -0.0000000   0.0000000   0.0000056
   46  -0.0000000  -0.0000000  -0.0000000  -0.0000000   0.0000000   0.0000000
   47  -0.0000000   0.0000000  -0.0000000   0.0000000  -0.0000000  -0.0000000
   48  -0.0000000   0.0000000   0.0000040   0.0000000  -0.0000000  -0.0000003
   49   0.0000006  -0.0000002  -0.0000000   0.0000001   0.0000005  -0.0000000
   50  -0.0000002  -0.0000014   0.0000000  -0.0000010   0.0000007  -0.0000000
   51  -0.0000000   0.0000000   0.0000213   0.0000000  -0.0000000  -0.0000133
   52   0.0000067   0.0000037   0.0000000  -0.0000018  -0.0000000   0.0000000
   53   0.0000009   0.0000001   0.0000000   0.0000003   0.0000002   0.0000000
   54   0.0000000  -0.0000000  -0.0001919  -0.0000000  -0.0000000   0.0000113
   55  -0.0000027  -0.0000031  -0.0001008  -0.0000049  -0.0000031  -0.0000246
   56  -0.0000010   0.0000005   0.0000367   0.0000034   0.0000016   0.0000076
   57  -0.0000014  -0.0000009  -0.0000172  -0.0000019  -0.0000013  -0.0000013
   58  -0.0000027  -0.0000031   0.0001008  -0.0000049  -0.0000031   0.0000246
   59  -0.0000010   0.0000005  -0.0000367   0.0000034   0.0000016  -0.0000076
   60   0.0000014   0.0000009  -0.0000172   0.0000019   0.0000013  -0.0000013
   61  -0.0000472   0.0000012   0.0000000  -0.0000026   0.0000036  -0.0000000
   62   0.0000025   0.0000002  -0.0000000   0.0000003  -0.0000001   0.0000000
   63  -0.0000000   0.0000000  -0.0007492  -0.0000000   0.0000000  -0.0000084
   64  -0.0000013  -0.0000013  -0.0000541   0.0000063   0.0000020  -0.0000013
   65   0.0000012  -0.0000012   0.0000197  -0.0000010  -0.0000004  -0.0000004
   66   0.0000009  -0.0000017   0.0000279  -0.0000022  -0.0000007   0.0000007
   67  -0.0000013  -0.0000013   0.0000541   0.0000063   0.0000020   0.0000013
   68   0.0000012  -0.0000012  -0.0000197  -0.0000010  -0.0000004   0.0000004
   69  -0.0000009   0.0000017   0.0000279   0.0000022   0.0000007   0.0000007
   70  -0.0000007  -0.0000002   0.0000046   0.0000001  -0.0000002   0.0000059
   71  -0.0000002   0.0000001   0.0000033  -0.0000001   0.0000000  -0.0000025
   72  -0.0000000   0.0000000  -0.0000024   0.0000001   0.0000001  -0.0000017
   73  -0.0000007  -0.0000002  -0.0000046   0.0000001  -0.0000002  -0.0000059
   74  -0.0000002   0.0000001  -0.0000033  -0.0000001   0.0000000   0.0000025
   75   0.0000000  -0.0000000  -0.0000024  -0.0000001  -0.0000001  -0.0000017
   76   0.0000003  -0.0000001  -0.0000000   0.0000000  -0.0000000   0.0000000
   77  -0.0000000  -0.0000000   0.0000000  -0.0000000   0.0000000  -0.0000000
   78   0.0000000   0.0000000   0.0000070   0.0000000   0.0000000   0.0000040
   79  -0.0000004   0.0000001  -0.0000017  -0.0000005  -0.0000002  -0.0000007
   80   0.0000001   0.0000003   0.0000024   0.0000001   0.0000000   0.0000005
   81   0.0000001   0.0000000  -0.0000009   0.0000001   0.0000000  -0.0000001
   82  -0.0000004   0.0000001   0.0000017  -0.0000005  -0.0000002   0.0000007
   83   0.0000001   0.0000003  -0.0000024   0.0000001   0.0000000  -0.0000005
   84  -0.0000001  -0.0000000  -0.0000009  -0.0000001  -0.0000000  -0.0000001
   85  -0.0000001  -0.0000000  -0.0000000   0.0000000  -0.0000000   0.0000000
   86   0.0000001   0.0000001  -0.0000000   0.0000000  -0.0000000   0.0000000
   87  -0.0000000  -0.0000000  -0.0000030  -0.0000000  -0.0000000   0.0000012
   88  -0.0000002   0.0000001  -0.0000571  -0.0000007  -0.0000006  -0.0000032
   89   0.0000000  -0.0000001  -0.0000000  -0.0000000  -0.0000000   0.0000000
   90  -0.0000002   0.0000002  -0.0000135   0.0000001  -0.0000000  -0.0000007
   91  -0.0000002   0.0000001   0.0000571  -0.0000007  -0.0000006   0.0000032
   92   0.0000000  -0.0000001   0.0000000  -0.0000000  -0.0000000  -0.0000000
   93   0.0000002  -0.0000002  -0.0000135  -0.0000001   0.0000000  -0.0000007
   94   0.0000001  -0.0000004   0.0000027  -0.0000010   0.0000001   0.0000000
   95   0.0000000   0.0000005  -0.0000002   0.0000002   0.0000001   0.0000001
   96  -0.0000012  -0.0000004  -0.0000013   0.0000003  -0.0000000   0.0000000
   97   0.0000001  -0.0000004  -0.0000027  -0.0000010   0.0000001  -0.0000000
   98   0.0000000   0.0000005   0.0000002   0.0000002   0.0000001  -0.0000001
   99   0.0000012   0.0000004  -0.0000013  -0.0000003   0.0000000   0.0000000
  100   0.0000845  -0.0000033  -0.0000000   0.0000031  -0.0000011   0.0000000
  101  -0.0000122   0.0000067  -0.0000000  -0.0000040  -0.0000035  -0.0000000
  102   0.0000000  -0.0000000   0.0006827   0.0000000  -0.0000000   0.0000097
  103   0.0000511   0.0000153   0.0000000   0.0000020  -0.0000051   0.0000000
  104  -0.0000064   0.0000049   0.0000000   0.0000008  -0.0000011   0.0000000
  105   0.0000000   0.0000000  -0.0001634  -0.0000000   0.0000000  -0.0000006
  106  -0.0000167  -0.0000057   0.0000000   0.0000008   0.0000026   0.0000000
  107  -0.0000277  -0.0000072   0.0000000   0.0000016   0.0000038   0.0000000
  108   0.0000000   0.0000000  -0.0001771  -0.0000000  -0.0000000   0.0000254
  109  -0.0000351   0.0000070   0.0000000   0.0000017  -0.0000001   0.0000000
  110   0.0000493  -0.0000036   0.0000000  -0.0000011  -0.0000013   0.0000000
  111  -0.0000000  -0.0000000  -0.0000930   0.0000000  -0.0000000  -0.0000294
  112   0.0000087  -0.0000108  -0.0000000  -0.0000006   0.0000031  -0.0000000
  113  -0.0000090  -0.0000039  -0.0000000  -0.0000027   0.0000016  -0.0000000
  114   0.0000000  -0.0000000   0.0002211   0.0000000   0.0000000   0.0000270
  115  -0.0000109   0.0000060  -0.0000000  -0.0000011  -0.0000010  -0.0000000
  116   0.0000027   0.0000039  -0.0000000   0.0000006  -0.0000018  -0.0000000
  117   0.0000000   0.0000000   0.0002318  -0.0000000  -0.0000000  -0.0000177
  118  -0.0000000  -0.0000000  -0.0000000   0.0000000  -0.0000000  -0.0000000
  119   0.0000001   0.0000000   0.0000000  -0.0000000  -0.0000000   0.0000000
  120  -0.0000000  -0.0000000   0.0000098  -0.0000000  -0.0000000   0.0000023
  121   0.0000000  -0.0000000  -0.0000000   0.0000000  -0.0000000   0.0000000
  122  -0.0000000  -0.0000000  -0.0000000   0.0000000   0.0000000   0.0000000
  123   0.0000000   0.0000000   0.0000111  -0.0000000  -0.0000000   0.0000015
  124  -0.0000001  -0.0000000  -0.0000000  -0.0000000   0.0000000  -0.0000000
  125   0.0000002   0.0000001   0.0000000   0.0000001  -0.0000000   0.0000000
  126  -0.0000000  -0.0000000   0.0000096   0.0000000  -0.0000000   0.0000001
  127  -0.0000001  -0.0000000   0.0000000  -0.0000000   0.0000000  -0.0000000
  128  -0.0000002  -0.0000001   0.0000000  -0.0000000   0.0000000   0.0000000
  129  -0.0000000  -0.0000000   0.0000092   0.0000000  -0.0000000  -0.0000001
  130  -0.0000522  -0.0000126   0.0000000   0.0000004   0.0000041  -0.0000000
  131  -0.0000249  -0.0000061   0.0000000   0.0000002   0.0000024   0.0000000
  132   0.0000000  -0.0000000   0.0000331   0.0000000   0.0000000  -0.0000054
  133  -0.0000001  -0.0000000   0.0000000  -0.0000000   0.0000000   0.0000000
  134   0.0000002   0.0000000   0.0000000   0.0000000  -0.0000000  -0.0000000
  135   0.0000000  -0.0000000  -0.0000010  -0.0000000  -0.0000000   0.0000002
  136   0.0000184   0.0000044  -0.0000000   0.0000001  -0.0000016   0.0000000
  137   0.0000270   0.0000061   0.0000000   0.0000001  -0.0000024   0.0000000
  138  -0.0000000  -0.0000000  -0.0000102   0.0000000  -0.0000000  -0.0000022
           13          14          15          16          17          18
    1   0.0000039   0.0000001   0.0000000   0.0000072  -0.0000035  -0.0000000
    2   0.0000019  -0.0000002  -0.0000000   0.0000015   0.0000022   0.0000000
    3   0.0000000   0.0000000  -0.0002162  -0.0000000   0.0000000   0.0001841
    4   0.0000001   0.0000000  -0.0000000   0.0000000  -0.0000001   0.0000000
    5  -0.0000001  -0.0000001  -0.0000000  -0.0000000   0.0000001   0.0000000
    6   0.0000000   0.0000000   0.0000117   0.0000000  -0.0000000  -0.0000054
    7   0.0000023  -0.0000000  -0.0000000  -0.0000005   0.0000001   0.0000000
    8  -0.0000012   0.0000010   0.0000000  -0.0000019  -0.0000001  -0.0000000
    9  -0.0000000  -0.0000000   0.0003162   0.0000000  -0.0000000  -0.0000608
   10  -0.0000011   0.0000003  -0.0000000   0.0000001   0.0000000   0.0000000
   11  -0.0000006  -0.0000004  -0.0000000   0.0000008   0.0000010   0.0000000
   12  -0.0000000   0.0000000   0.0000346   0.0000000  -0.0000000   0.0000515
   13  -0.0000073   0.0000002   0.0000000  -0.0000003  -0.0000000  -0.0000000
   14   0.0000002  -0.0000032   0.0000000  -0.0000004  -0.0000003   0.0000000
   15   0.0000000   0.0000000  -0.0003646  -0.0000000   0.0000000   0.0000404
   16  -0.0000003  -0.0000004  -0.0000000  -0.0000028   0.0000012   0.0000000
   17  -0.0000000  -0.0000003   0.0000000   0.0000012  -0.0000036  -0.0000000
   18  -0.0000000   0.0000000   0.0000404   0.0000000  -0.0000000  -0.0001116
   19   0.0000025  -0.0000006   0.0000000  -0.0000006  -0.0000007  -0.0000000
   20  -0.0000010   0.0000018   0.0000000  -0.0000002  -0.0000005  -0.0000000
   21   0.0000000  -0.0000000   0.0000576  -0.0000000  -0.0000000  -0.0000023
   22   0.0000014   0.0000002   0.0000000   0.0000013   0.0000004   0.0000000
   23   0.0000007   0.0000013   0.0000000  -0.0000005   0.0000002  -0.0000000
   24  -0.0000000   0.0000000   0.0000811   0.0000000  -0.0000000  -0.0000089
   25   0.0000000  -0.0000000   0.0000000   0.0000000   0.0000001  -0.0000000
   26  -0.0000000  -0.0000000  -0.0000000   0.0000002   0.0000002   0.0000000
   27  -0.0000000   0.0000000   0.0000023   0.0000000   0.0000000  -0.0000036
   28   0.0000000  -0.0000000  -0.0000000   0.0000000  -0.0000000   0.0000000
   29  -0.0000000   0.0000000   0.0000000  -0.0000000   0.0000000  -0.0000000
   30   0.0000000   0.0000000  -0.0000000  -0.0000000  -0.0000000  -0.0000001
   31   0.0000000  -0.0000000   0.0000000  -0.0000000   0.0000000   0.0000000
   32   0.0000000   0.0000000  -0.0000000   0.0000000  -0.0000000   0.0000000
   33  -0.0000000  -0.0000000   0.0000015   0.0000000  -0.0000000  -0.0000009
   34   0.0000002   0.0000003  -0.0000000  -0.0000016  -0.0000005  -0.0000000
   35  -0.0000002  -0.0000001   0.0000000  -0.0000004   0.0000003  -0.0000000
   36   0.0000000   0.0000000  -0.0000171   0.0000000  -0.0000000   0.0000006
   37  -0.0000000   0.0000000  -0.0000000  -0.0000000   0.0000000   0.0000000
   38   0.0000001  -0.0000000  -0.0000000   0.0000000   0.0000000   0.0000000
   39  -0.0000000   0.0000000   0.0000119   0.0000000  -0.0000000  -0.0000004
   40   0.0000000   0.0000000   0.0000000   0.0000000  -0.0000000  -0.0000000
   41   0.0000000   0.0000000  -0.0000000   0.0000000  -0.0000000   0.0000000
   42  -0.0000000   0.0000000  -0.0000003   0.0000000  -0.0000000  -0.0000001
   43  -0.0000008   0.0000001   0.0000000  -0.0000009  -0.0000001   0.0000000
   44  -0.0000001   0.0000002  -0.0000000  -0.0000013  -0.0000006  -0.0000000
   45   0.0000000  -0.0000000  -0.0000268  -0.0000000   0.0000000   0.0000037
   46  -0.0000000  -0.0000000   0.0000000   0.0000000  -0.0000000  -0.0000000
   47  -0.0000000   0.0000000   0.0000000  -0.0000000  -0.0000000  -0.0000000
   48   0.0000000   0.0000000  -0.0000061  -0.0000000   0.0000000   0.0000009
   49   0.0000002   0.0000000   0.0000000   0.0000002   0.0000005   0.0000000
   50   0.0000003  -0.0000003   0.0000000   0.0000014   0.0000002   0.0000000
   51   0.0000000   0.0000000  -0.0000234  -0.0000000   0.0000000   0.0000115
   52   0.0000052   0.0000004   0.0000000  -0.0000019  -0.0000005  -0.0000000
   53  -0.0000001  -0.0000000  -0.0000000   0.0000001   0.0000006  -0.0000000
   54  -0.0000000  -0.0000000   0.0000930   0.0000000   0.0000000  -0.0000864
   55   0.0000110   0.0000007   0.0000572   0.0000072  -0.0000028  -0.0000273
   56  -0.0000056  -0.0000002  -0.0000273  -0.0000005   0.0000006  -0.0000142
   57   0.0000035   0.0000003   0.0000150   0.0000005  -0.0000005   0.0000122
   58   0.0000110   0.0000007  -0.0000572   0.0000072  -0.0000028   0.0000273
   59  -0.0000056  -0.0000002   0.0000273  -0.0000005   0.0000006   0.0000142
   60  -0.0000035  -0.0000003   0.0000150  -0.0000005   0.0000005   0.0000122
   61   0.0000430   0.0000102  -0.0000000  -0.0000775  -0.0000308   0.0000000
   62  -0.0000035  -0.0000008   0.0000000   0.0000047   0.0000022  -0.0000000
   63  -0.0000000   0.0000000   0.0004217   0.0000000   0.0000000  -0.0009056
   64  -0.0000116  -0.0000010   0.0000278   0.0000037   0.0000025   0.0000363
   65   0.0000029   0.0000003  -0.0000141  -0.0000024  -0.0000001  -0.0000136
   66   0.0000041   0.0000003  -0.0000163  -0.0000028   0.0000001  -0.0000173
   67  -0.0000116  -0.0000010  -0.0000278   0.0000037   0.0000025  -0.0000363
   68   0.0000029   0.0000003   0.0000141  -0.0000024  -0.0000001   0.0000136
   69  -0.0000041  -0.0000003  -0.0000163   0.0000028  -0.0000001  -0.0000173
   70   0.0000003  -0.0000002   0.0000011   0.0000012   0.0000002  -0.0000053
   71  -0.0000000   0.0000001  -0.0000018  -0.0000003  -0.0000002   0.0000041
   72  -0.0000002   0.0000001  -0.0000006  -0.0000007  -0.0000001   0.0000005
   73   0.0000003  -0.0000002  -0.0000011   0.0000012   0.0000002   0.0000053
   74  -0.0000000   0.0000001   0.0000018  -0.0000003  -0.0000002  -0.0000041
   75   0.0000002  -0.0000001  -0.0000006   0.0000007   0.0000001   0.0000005
   76   0.0000000  -0.0000000   0.0000000   0.0000002   0.0000001   0.0000000
   77   0.0000001   0.0000000  -0.0000000  -0.0000001  -0.0000000  -0.0000000
   78  -0.0000000  -0.0000000  -0.0000210  -0.0000000  -0.0000000  -0.0000053
   79   0.0000004   0.0000000   0.0000014   0.0000002  -0.0000002   0.0000014
   80   0.0000002  -0.0000000  -0.0000022   0.0000002  -0.0000001   0.0000007
   81  -0.0000001  -0.0000000   0.0000005   0.0000000  -0.0000000   0.0000001
   82   0.0000004   0.0000000  -0.0000014   0.0000002  -0.0000002  -0.0000014
   83   0.0000002  -0.0000000   0.0000022   0.0000002  -0.0000001  -0.0000007
   84   0.0000001   0.0000000   0.0000005  -0.0000000   0.0000000   0.0000001
   85  -0.0000001   0.0000000   0.0000000  -0.0000001   0.0000000  -0.0000000
   86   0.0000000   0.0000000   0.0000000  -0.0000000   0.0000000  -0.0000000
   87  -0.0000000   0.0000000   0.0000017  -0.0000000   0.0000000   0.0000004
   88   0.0000003   0.0000003   0.0000192  -0.0000011  -0.0000003  -0.0000057
   89   0.0000000  -0.0000000   0.0000003   0.0000001   0.0000001   0.0000000
   90   0.0000001   0.0000000   0.0000048  -0.0000001  -0.0000003  -0.0000019
   91   0.0000003   0.0000003  -0.0000192  -0.0000011  -0.0000003   0.0000057
   92   0.0000000  -0.0000000  -0.0000003   0.0000001   0.0000001  -0.0000000
   93  -0.0000001  -0.0000000   0.0000048   0.0000001   0.0000003  -0.0000019
   94   0.0000007   0.0000001   0.0000016  -0.0000010   0.0000002  -0.0000098
   95  -0.0000001  -0.0000000  -0.0000001  -0.0000001  -0.0000001  -0.0000004
   96  -0.0000003  -0.0000000   0.0000001  -0.0000002   0.0000002   0.0000019
   97   0.0000007   0.0000001  -0.0000016  -0.0000010   0.0000002   0.0000098
   98  -0.0000001  -0.0000000   0.0000001  -0.0000001  -0.0000001   0.0000004
   99   0.0000003   0.0000000   0.0000001   0.0000002  -0.0000002   0.0000019
  100  -0.0000734  -0.0000185   0.0000000   0.0000982   0.0000567  -0.0000000
  101   0.0000120  -0.0000030  -0.0000000  -0.0000003   0.0000036   0.0000000
  102   0.0000000  -0.0000000  -0.0003877  -0.0000000  -0.0000000   0.0006290
  103  -0.0000385  -0.0000131  -0.0000000   0.0000541   0.0000311   0.0000000
  104   0.0000018  -0.0000038  -0.0000000  -0.0000007   0.0000051  -0.0000000
  105   0.0000000  -0.0000000   0.0000815   0.0000000   0.0000000  -0.0000749
  106   0.0000134   0.0000077  -0.0000000  -0.0000260  -0.0000197  -0.0000000
  107   0.0000225   0.0000115   0.0000000  -0.0000416  -0.0000278  -0.0000000
  108   0.0000000  -0.0000000  -0.0000197  -0.0000000  -0.0000000  -0.0001199
  109   0.0000184   0.0000004   0.0000000  -0.0000264  -0.0000098  -0.0000000
  110  -0.0000321  -0.0000065   0.0000000   0.0000460   0.0000228  -0.0000000
  111   0.0000000   0.0000000   0.0001841  -0.0000000   0.0000000   0.0002347
  112  -0.0000019   0.0000065  -0.0000000  -0.0000034  -0.0000077  -0.0000000
  113   0.0000079   0.0000023  -0.0000000  -0.0000065  -0.0000072   0.0000000
  114  -0.0000000   0.0000000  -0.0000899  -0.0000000  -0.0000000   0.0001200
  115   0.0000044  -0.0000036  -0.0000000  -0.0000001   0.0000047   0.0000000
  116  -0.0000017   0.0000002   0.0000000   0.0000027  -0.0000000   0.0000000
  117  -0.0000000  -0.0000000  -0.0001540   0.0000000  -0.0000000   0.0000972
  118   0.0000000   0.0000000   0.0000000  -0.0000001   0.0000000  -0.0000000
  119  -0.0000001  -0.0000000  -0.0000000   0.0000001  -0.0000000  -0.0000000
  120   0.0000000   0.0000000  -0.0000020  -0.0000000  -0.0000000   0.0000117
  121   0.0000000   0.0000000   0.0000000  -0.0000001  -0.0000000   0.0000000
  122   0.0000000   0.0000000   0.0000000  -0.0000001  -0.0000001   0.0000000
  123   0.0000000   0.0000000  -0.0000002   0.0000000  -0.0000000   0.0000155
  124   0.0000001   0.0000000   0.0000000  -0.0000001  -0.0000001   0.0000000
  125  -0.0000002  -0.0000000  -0.0000000   0.0000001   0.0000001   0.0000000
  126   0.0000000   0.0000000   0.0000011  -0.0000000  -0.0000000   0.0000062
  127   0.0000000   0.0000000   0.0000000  -0.0000000  -0.0000001   0.0000000
  128   0.0000000   0.0000000  -0.0000000  -0.0000000  -0.0000001   0.0000000
  129  -0.0000000   0.0000000  -0.0000090  -0.0000000  -0.0000000  -0.0000050
  130   0.0000398   0.0000141   0.0000000  -0.0000595  -0.0000312  -0.0000000
  131   0.0000190   0.0000063   0.0000000  -0.0000284  -0.0000138  -0.0000000
  132  -0.0000000  -0.0000000  -0.0000142  -0.0000000   0.0000000  -0.0000017
  133   0.0000001   0.0000000  -0.0000000  -0.0000001  -0.0000000  -0.0000000
  134  -0.0000001  -0.0000000  -0.0000000   0.0000002   0.0000001   0.0000000
[...]
             Standard Nuclear Orientation (Angstroms)
    I     Atom           X                Y                Z
 ----------------------------------------------------------------
    1      C       2.4414638038    -0.6700274012     0.0000000000
    2      H       2.6051050674     1.4454449961     0.0000000000
    3      C       3.1317260103     0.5064715538     0.0000000000
    4      C       4.5408556143    -1.8840424156     0.0000000000
    5      C       4.5498522270     0.5427727379     0.0000000000
    6      C       3.1826193748    -1.8827515804     0.0000000000
    7      C       5.2687314748    -0.6677358880     0.0000000000
    8      C       5.2710472829     1.7679045922     0.0000000000
    9      H       2.6509603480    -2.8186569650     0.0000000000
   10      H       7.2335590931    -1.5585430960     0.0000000000
   11      H       5.0804260711    -2.8155606986     0.0000000000
   12      C       6.6285792931     1.7744720714     0.0000000000
   13      H       4.7228138412     2.6942616148     0.0000000000
   14      H       7.1649027409     2.7070048312     0.0000000000
   15      C       7.3507875318     0.5551331952     0.0000000000
   16      H       8.4262196662     0.5760827933     0.0000000000
   17      C       6.6888916780    -0.6300712230     0.0000000000
   18      C       0.9211716591    -0.7197114897     0.0000000000
   19      C      -1.2192137786    -0.1897912420     1.2628813455
   20      C      -1.2192137786    -0.1897912420    -1.2628813455
   21      C      -1.8385322052     0.4395702053     0.0000000000
   22      C       0.3084084636    -0.0881763953    -1.2609806691
   23      C       0.3084084636    -0.0881763953     1.2609806691
   24      H      -1.5091817693    -1.2369123717     1.3276495647
   25      H      -1.5091817693    -1.2369123717    -1.3276495647
   26      H      -1.5597482870     1.4926306348     0.0000000000
   27      H       0.5997731033     0.9585038865    -1.3212642018
   28      H       0.5997731033     0.9585038865     1.3212642018
   29      H       0.6364636530    -1.7708371254     0.0000000000
   30      H      -1.6210573062     0.2966176943     2.1473467220
   31      H      -1.6210573062     0.2966176943    -2.1473467220
   32      H       0.7122749538    -0.5716882400    -2.1459328582
   33      H       0.7122749538    -0.5716882400     2.1459328582
   34      C      -3.3481338737     0.3785681065     0.0000000000
   35      C      -6.2007515076     0.2943433617     0.0000000000
   36      C      -4.0622361175    -0.8761663678     0.0000000000
   37      C      -4.1405718712     1.5892009765     0.0000000000
   38      C      -5.4956022011     1.5650684739     0.0000000000
   39      C      -5.4153645947    -0.9366384458     0.0000000000
   40      H      -3.5001669305    -1.7930196187     0.0000000000
   41      H      -3.6278638848     2.5354839871     0.0000000000
   42      H      -6.0636932764     2.4781028221     0.0000000000
   43      H      -5.9420593197    -1.8703852603     0.0000000000
   44      C      -7.6387069664     0.2404591758     0.0000000000
   45      H      -8.1611925695     1.1989695168     0.0000000000
   46      O      -8.2643300090    -0.7974158195     0.0000000000
 ----------------------------------------------------------------
 Nuclear Repulsion Energy =  1785.0890920185 hartrees
 There are       84 alpha and       84 beta electrons
 Requested basis set is 6-31G(d,p)
 There are 162 shells and 470 basis functions

Total QAlloc Memory Limit  20000 MB
Mega-Array Size      4888 MB
MEM_STATIC part      5000 MB
 A cutoff of  1.0D-12 yielded   7133 shell pairs
 There are     60695 function pairs
 Smallest overlap matrix eigenvalue = 2.65E-04

  Scale SEOQF with 1.000000e-02/1.000000e-01/1.000000e-01

 Standard Electronic Orientation quadrupole field applied
 Nucleus-field energy     =     0.0000000219 hartrees
 Guess MOs from SCF MO coefficient file
Reading MOs from coefficient file
Reading MOs from coefficient file
 A restricted Hartree-Fock SCF calculation will be
 performed using Pulay DIIS extrapolation
 SCF converges when DIIS error is below 1.0E-10
 ---------------------------------------
  Cycle       Energy         DIIS Error
 ---------------------------------------
    1    -958.7019792484      1.62E-11
    2    -958.7019792483      1.92E-11 Convergence criterion met
 ---------------------------------------
 SCF time:  CPU 97.41 s  wall 97.44 s
 SCF   energy in the final basis set = -958.7019792483
 Total energy in the final basis set = -958.7019792483
 Direct RCIS calculation will be performed
 Triplet excitation energies requested
 CIS energy converged when residual is below 10e-10
 ---------------------------------------------------
 Iter    Rts Conv    Rts Left    Ttl Dev     Max Dev
 ---------------------------------------------------
   1         0           2      0.000319    0.000201
   2         0           2      0.000909    0.000554
   3         0           2      0.000405    0.000267
   4         0           2      0.000225    0.000148
   5         0           2      0.000113    0.000082
   6         0           2      0.000038    0.000029
   7         0           2      0.000019    0.000016
   8         0           2      0.000008    0.000006
   9         0           2      0.000004    0.000003
  10         0           2      0.000002    0.000002
  11         0           2      0.000001    0.000001
  12         0           2      0.000000    0.000000
  13         0           2      0.000000    0.000000
  14         0           2      0.000000    0.000000
  15         0           2      0.000000    0.000000
  16         0           2      0.000000    0.000000
  17         0           2      0.000000    0.000000
  18         1           1      0.000000    0.000000
  19         1           1      0.000000    0.000000
  20         1           1      0.000000    0.000000
  21         2           0      0.000000    0.000000    Roots Converged
 ---------------------------------------------------
 
 
 ---------------------------------------------------
               CIS Excitation Energies              
 ---------------------------------------------------

 Excited state   1: excitation energy (eV) =    2.5565
    Total energy for state   1:   -958.608030580105
    Multiplicity: Triplet 
    Trans. Mom.:  0.0000 X   0.0000 Y   0.0000 Z
    Strength   :  0.0000
    D( 81) --> V(  4) amplitude = -0.2876
    D( 82) --> V(  1) amplitude = -0.8679
    D( 83) --> V(  1) amplitude = -0.2170

 Excited state   2: excitation energy (eV) =    2.7404
    Total energy for state   2:   -958.601270910027
    Multiplicity: Triplet 
    Trans. Mom.:  0.0000 X   0.0000 Y   0.0000 Z
    Strength   :  0.0000
    D( 80) --> V(  5) amplitude = -0.3249
    D( 83) --> V(  3) amplitude = -0.3495
    D( 84) --> V(  2) amplitude =  0.8155
 
 ---------------------------------------------------
  Timing summary (seconds)
  CPU time       1727.67s
  System time       0.00s
  Wall time      1730.78s


 Entering the ER Localization Code for CIS excited states. 

NOTE: THIS HAS BEEN ONLY PARTIALLY TESTED FOR THE CASE THAT WE HAVE UNRESTRICTED ORBITALS.
INITIAL CENTER1 LOCATIONS: state 0  Occ x -9.830 y  0.469 z  0.000 Virt x -9.758 y  0.473 z  0.000
INITIAL CENTER1 LOCATIONS: state 1  Occ x  9.200 y -0.083 z  0.000 Virt x  9.191 y -0.129 z -0.000
INITIAL CENTER2 LOCATIONS: state 0  Occ x 106.650 y  3.036 z  2.244 Virt x 105.985 y  3.990 z  2.076
INITIAL CENTER2 LOCATIONS: state 1  Occ x 95.088 y  6.953 z  2.270 Virt x 95.761 y  7.314 z  2.124
INITIAL STANDARD DEVIATIONS: state 0  Occ x  3.165 y  1.678 z  1.498 Virt x  3.282 y  1.941 z  1.441
INITIAL STANDARD DEVIATIONS: state 1  Occ x  3.232 y  2.635 z  1.507 Virt x  3.358 y  2.701 z  1.457
INITIAL : state 0 sum of square of distances to other adiabatic states Occ 362.453275 Virt 359.435645
INITIAL : state 1 sum of square of distances to other adiabatic states Occ 362.453275 Virt 359.435645



Calling Random Orthogonal Matrix...
RandomSeed = 25
location random matrix in checkantisymmetry: max_diff = 0.000000e+00
location random matrix in checkunitary: max_diff = 0.000000e+00
 initially ruedvalue =    1.02161613905796     
showmatrix initial R-Matrix(0,0) =   0.5517052029
showmatrix initial R-Matrix(1,0) =   0.0043530747
showmatrix initial R-Matrix(0,1) =  -0.0053366208
showmatrix initial R-Matrix(1,1) =   0.4699109361
JacSwp  rnd     1 max_diff -9.999000e+03 ruedval     1.0218503042
In RUED_JACOBI SWEEPS for DIABATIC STATES, ending in round     1  because max_diff = 2.602085e-18
showmatrix final R-Matrix(0,0) =   0.5518341103
showmatrix final R-Matrix(1,0) =   0.0000023946
showmatrix final R-Matrix(0,1) =   0.0000023946
showmatrix final R-Matrix(1,1) =   0.4700161939
showmatrix final adiabatic -> diabatic RotMatrix(0,0) =   0.9999945757
showmatrix final adiabatic -> diabatic RotMatrix(1,0) =  -0.0032937222
showmatrix final adiabatic -> diabatic RotMatrix(0,1) =   0.0032937222
showmatrix final adiabatic -> diabatic RotMatrix(1,1) =   0.9999945757
location RotMatrix in boys_diabatic_nogs in checkunitary: max_diff = 0.000000e+00
showing H in adiabatic representation: NO coupling elements!!!
showmatrix adiabatH(0,0) =   0.0939486682
showmatrix adiabatH(1,0) =   0.0000000000
showmatrix adiabatH(0,1) =   0.0000000000
showmatrix adiabatH(1,1) =   0.1007083383
getting H in diabatic representation: WITH coupling elements!!!
showmatrix diabatH(0,0) =   0.0939487416
showmatrix diabatH(1,0) =  -0.0000222644
showmatrix diabatH(0,1) =  -0.0000222644
showmatrix diabatH(1,1) =   0.1007082650
FINAL CENTER LOCATIONS Spin Occ : state 0 x -9.830 y  0.469 z  0.000  Virt x -9.758 y  0.473 z  0.000
FINAL CENTER LOCATIONS Spin Occ : state 1 x  9.200 y -0.083 z  0.000  Virt x  9.192 y -0.129 z -0.000
FINAL CENTER2 LOCATIONS: state 0  Occ x 106.650 y  3.036 z  2.244 Virt x 105.985 y  3.990 z  2.076
FINAL CENTER2 LOCATIONS: state 1  Occ x 95.088 y  6.953 z  2.270 Virt x 95.760 y  7.314 z  2.124
FINAL STANDARD DEVIATIONS: state 0  Occ x  3.165 y  1.678 z  1.498 Virt x  3.281 y  1.941 z  1.441
FINAL STANDARD DEVIATIONS: state 1  Occ x  3.231 y  2.635 z  1.507 Virt x  3.358 y  2.701 z  1.457
FINAL: state 0 sum of square of distances to other Centers Occ 362.468862 Virt 359.450965 
FINAL: state 1 sum of square of distances to other Centers Occ 362.468862 Virt 359.450965 



Calculating ER second derivative! Everything should be negative. If so, we are done.
location hessian --max_diff from checksymmetry = 0.000000e+00
eval of hessian: count 0 eval -3.209531
 STSman time:  CPU 0.00 s  wall 0.00 s

 Analysis of SCF Wavefunction
 
 --------------------------------------------------------------
                    Orbital Energies (a.u.)
 --------------------------------------------------------------
 
 Alpha MOs
 -- Occupied --
-20.548 -11.322 -11.272 -11.260 -11.253 -11.248 -11.244 -11.244
-11.242 -11.240 -11.239 -11.238 -11.236 -11.234 -11.233 -11.233
-11.232 -11.231 -11.231 -11.229 -11.229 -11.229 -11.225 -11.225
 -1.378  -1.180  -1.162  -1.137  -1.110  -1.064  -1.045  -1.035
 -1.016  -1.016  -0.992  -0.972  -0.900  -0.857  -0.847  -0.841
 -0.833  -0.816  -0.803  -0.779  -0.765  -0.705  -0.702  -0.698
 -0.678  -0.663  -0.649  -0.629  -0.620  -0.619  -0.614  -0.613
 -0.602  -0.593  -0.588  -0.578  -0.575  -0.565  -0.558  -0.539
 -0.539  -0.535  -0.526  -0.515  -0.500  -0.497  -0.490  -0.482
 -0.481  -0.470  -0.462  -0.451  -0.438  -0.430  -0.417  -0.380
 -0.356  -0.317  -0.312  -0.287
 -- Virtual --
  0.070   0.099   0.130   0.140   0.187   0.220   0.222   0.223
  0.236   0.243   0.254   0.263   0.267   0.268   0.285   0.287
  0.294   0.303   0.312   0.321   0.324   0.326   0.328   0.333
  0.336   0.342   0.355   0.358   0.360   0.376   0.388   0.392
  0.411   0.414   0.423   0.423   0.437   0.447   0.462   0.467
  0.477   0.480   0.485   0.493   0.506   0.517   0.524   0.534
  0.544   0.568   0.574   0.594   0.661   0.691   0.707   0.709
  0.713   0.726   0.728   0.729   0.734   0.736   0.739   0.745
  0.747   0.747   0.754   0.766   0.777   0.785   0.794   0.795
  0.798   0.804   0.812   0.816   0.817   0.827   0.828   0.833
  0.846   0.858   0.863   0.869   0.872   0.875   0.883   0.904
  0.909   0.912   0.922   0.929   0.940   0.949   0.950   0.971
  0.978   0.983   0.990   1.028   1.030   1.040   1.051   1.055
  1.058   1.060   1.066   1.069   1.071   1.077   1.080   1.081
  1.085   1.087   1.100   1.106   1.109   1.112   1.123   1.129
  1.131   1.138   1.146   1.151   1.163   1.166   1.180   1.185
  1.192   1.195   1.210   1.214   1.224   1.224   1.226   1.234
  1.243   1.253   1.270   1.282   1.285   1.307   1.310   1.327
  1.342   1.358   1.378   1.384   1.404   1.412   1.416   1.431
  1.448   1.467   1.478   1.484   1.502   1.512   1.519   1.520
  1.545   1.549   1.571   1.598   1.610   1.625   1.633   1.637
  1.647   1.653   1.660   1.667   1.671   1.678   1.686   1.693
  1.701   1.711   1.716   1.732   1.735   1.767   1.783   1.791
  1.799   1.809   1.829   1.859   1.896   1.911   1.941   1.966
  1.984   1.985   2.033   2.047   2.049   2.053   2.075   2.087
  2.096   2.100   2.107   2.113   2.115   2.133   2.140   2.147
  2.148   2.169   2.176   2.185   2.189   2.199   2.199   2.205
  2.209   2.221   2.228   2.235   2.240   2.245   2.253   2.255
  2.273   2.276   2.277   2.290   2.301   2.304   2.319   2.335
  2.338   2.357   2.395   2.396   2.400   2.403   2.417   2.436
  2.444   2.449   2.458   2.468   2.483   2.497   2.512   2.518
  2.523   2.549   2.549   2.577   2.579   2.593   2.597   2.616
  2.625   2.631   2.637   2.643   2.662   2.662   2.665   2.676
  2.687   2.695   2.708   2.710   2.711   2.716   2.732   2.741
  2.745   2.751   2.761   2.770   2.778   2.784   2.797   2.812
  2.824   2.828   2.834   2.853   2.869   2.872   2.879   2.891
  2.893   2.910   2.914   2.922   2.923   2.928   2.938   2.953
  2.954   2.963   2.974   2.975   2.998   3.013   3.032   3.035
  3.044   3.065   3.073   3.078   3.096   3.098   3.109   3.116
  3.144   3.165   3.166   3.177   3.179   3.193   3.195   3.200
  3.224   3.238   3.259   3.269   3.288   3.301   3.323   3.356
  3.377   3.392   3.413   3.430   3.442   3.477   3.521   3.538
  3.550   3.605   3.630   3.631   3.637   3.659   3.660   3.683
  3.697   3.720   3.730   3.736   3.786   3.802   3.821   3.850
  3.874   3.887   3.889   3.914   3.917   3.930   3.992   4.170
  4.201   4.315   4.363   4.524   4.545   4.570   4.574   4.584
  4.599   4.614   4.660   4.715   4.752   4.775   4.840   4.857
  4.858   4.891   4.931   4.946   5.094   5.178   5.191   5.228
  5.271   5.379
 --------------------------------------------------------------
 
          Ground-State Mulliken Net Atomic Charges

     Atom                 Charge (a.u.)
  ----------------------------------------
      1 C                    -0.001482
      2 H                     0.145916
      3 C                    -0.135666
      4 C                    -0.124046
      5 C                    -0.029640
      6 C                    -0.168252
      7 C                    -0.040332
      8 C                    -0.127162
      9 H                     0.147156
     10 H                     0.152012
     11 H                     0.153482
     12 C                    -0.157774
     13 H                     0.149612
     14 H                     0.150576
     15 C                    -0.160450
     16 H                     0.150660
     17 C                    -0.124161
     18 C                    -0.150080
     19 C                    -0.206783
     20 C                    -0.206783
     21 C                    -0.161423
     22 C                    -0.202430
     23 C                    -0.202430
     24 H                     0.111790
     25 H                     0.111790
     26 H                     0.124545
     27 H                     0.108997
     28 H                     0.108997
     29 H                     0.118549
     30 H                     0.127306
     31 H                     0.127306
     32 H                     0.128114
     33 H                     0.128114
     34 C                     0.026462
     35 C                    -0.180182
     36 C                    -0.154141
     37 C                    -0.174250
     38 C                    -0.109036
     39 C                    -0.086290
     40 H                     0.153299
     41 H                     0.151011
     42 H                     0.165268
     43 H                     0.197551
     44 C                     0.396354
     45 H                     0.107146
     46 O                    -0.539220
  ----------------------------------------
  Sum of atomic charges =     0.000000

 -----------------------------------------------------------------
                    Cartesian Multipole Moments
 -----------------------------------------------------------------
    Charge (ESU x 10^10)
                 0.0000
    Dipole Moment (Debye)
         X       3.7629      Y       2.1001      Z       0.0000
       Tot       4.3093
    Quadrupole Moments (Debye-Ang)
        XX    -178.0874     XY     -18.7042     YY    -128.7681
        XZ       0.0000     YZ       0.0000     ZZ    -148.8379
    Octopole Moments (Debye-Ang^2)
       XXX     487.3392    XXY     155.6590    XYY       1.4311
       YYY       1.6525    XXZ       0.0000    XYZ       0.0000
       YYZ       0.0000    XZZ     -28.8745    YZZ      -2.5796
       ZZZ       0.0000
    Hexadecapole Moments (Debye-Ang^3)
      XXXX  -21830.7264   XXXY   -1283.3748   XXYY   -3065.1747
      XYYY      -3.8010   YYYY   -1061.7533   XXXZ       0.0000
      XXYZ       0.0000   XYYZ       0.0000   YYYZ       0.0000
      XXZZ   -3459.9717   XYZZ       7.9086   YYZZ    -292.4679
      XZZZ       0.0000   YZZZ       0.0000   ZZZZ    -463.9836
 -----------------------------------------------------------------
Archival summary:
1\1\fermi.chem.uh.edu\SP\HF\6-31G**\12322\xunmo\FriFeb2820:04:062014FriFeb2820:04:062014\0\\#,HF,6-31G**,\\0,1\C\H,1,1.089\C,1,1.5211,2,107.027\C,3,1.36404,1,122.272,2,-180,0\H,4,1.07657,3,120.314,1,0,0\C,4,1.41859,3,121.867,1,-180,0\C,6,1.40788,4,119.238,3,0,0\C,7,1.41746,6,118.398,4,0,0\H,8,1.0765,7,119.021,6,-180,0\C,8,1.35824,7,120.843,6,0,0\H,10,1.07637,8,119.545,7,-180,0\C,7,1.42066,6,119.185,4,-180,0\H,12,1.07644,7,118.878,6,-180,0\C,12,1.3575,7,120.701,6,0,0\H,14,1.07564,12,120.298,7,-180,0\C,14,1.41717,12,120.18,7,0,0\H,16,1.07576,14,119.458,12,-180,0\C,16,1.35755,14,120.361,12,0,0\H,18,1.07643,16,120.341,14,-180,0\C,1,1.53766,2,106.992,3,120.963,0\H,20,1.08629,1,109.7,2,-61.4043,0\H,20,1.08815,1,109.499,2,-177.904,0\C,20,1.531,1,111.801,2,60.7802,0\H,23,1.08644,20,109.898,1,177.946,0\H,23,1.08846,20,109.253,1,-65.5636,0\C,1,1.53766,2,106.992,3,-120.963,0\H,26,1.08629,1,109.7,2,61.4043,0\H,26,1.08815,1,109.499,2,177.904,0\C,26,1.531,1,111.801,2,-60.7802,0\H,29,1.08644,26,109.898,1,-177.946,0\H,29,1.08846,26,109.253,1,65.5636,0\C,29,1.54095,26,111.894,1,-55.9267,0\H,32,1.08934,29,106.976,26,-61.1365,0\C,32,1.51083,29,112.649,26,-178.608,0\C,34,1.44371,32,121.959,29,-62.6272,0\H,35,1.07543,34,118.845,32,0,0\C,35,1.35448,34,122.204,32,-180,0\H,37,1.07205,35,121.985,34,-180,0\C,34,1.44692,32,120.893,29,117.373,0\H,39,1.07625,34,118.343,32,0,0\C,39,1.35525,34,122.187,32,-180,0\H,41,1.07534,39,120.87,34,-180,0\C,41,1.45326,39,120.047,34,0,0\C,43,1.43896,41,121.173,39,-180,0\H,44,1.09167,43,116.449,41,0,0\O,44,1.21185,43,123.227,41,-180,0\\HF=-958.701979\\@

 Total job time:  2076.08s(wall), 2072.74s(cpu) 
 Fri Feb 28 20:04:06 2014

        *************************************************************
        *                                                           *
        *  Thank you very much for using Q-Chem.  Have a nice day.  *
        *                                                           *
        *************************************************************


0 sent ACK to 0 
now end server 0 ... 
cleanup process ... done
