
Running Job 1 of 4 INP/c14ea
qchem INP/c14ea_36364.0 /home/qchem_scratch/qchem36364/ 1
/home/QCHEM/bin/mpi/mpirun_qchem -machinefile /home/QCHEM/bin/mpi/machines -np 1 /home/QCHEM/exe/qcprog.exe INP/c14ea_36364.0 /home/qchem_scratch/qchem36364/

Process 0 of 1 is on fermi.chem.uh.edu - thread support 0
initial socket setup ...start
initial socket setup ...done 
now start server 0 ... 
                  Welcome to Q-Chem
     A Quantum Leap Into The Future Of Chemistry

 Y. Shao, L. Fusti-Molnar, Y. Jung, J. Kussmann, C. Ochsenfeld, S. T. Brown, 
 A. T. B. Gilbert, L. V. Slipchenko, S. V. Levchenko, D. P. O'Neill, 
 R. A. DiStasio Jr., R. C. Lochan, T. Wang, G. J. O. Beran, N. A. Besley, 
 J. M. Herbert, C. Y. Lin, T. Van Voorhis, S. H. Chien, A. Sodt, R. P. Steele, 
 V. A. Rassolov, P. E. Maslen, P. P. Korambath, R. D. Adamson, B. Austin, 
 J. Baker, E. F. C. Byrd, H. Dachsel, R. J. Doerksen, A. Dreuw, B. D. Dunietz, 
 A. D. Dutoi, T. R. Furlani, S. R. Gwaltney, A. Heyden, S. Hirata, C.-P. Hsu, 
 G. Kedziora, R. Z. Khaliullin, P. Klunzinger, A. M. Lee, M. S. Lee, W. Liang, 
 I. Lotan, N. Nair, B. Peters, E. I. Proynov, P. A. Pieniazek, Y. M. Rhee, 
 J. Ritchie, E. Rosta, C. D. Sherrill, A. C. Simmonett, J. E. Subotnik, 
 H. L. Woodcock III, W. Zhang, A. T. Bell, A. K. Chakraborty, D. M. Chipman, 
 F. J. Keil, A. Warshel, W. J. Hehre, H. F. Schaefer III, J. Kong, 
 A. I. Krylov, P. M. W. Gill, M. Head-Gordon

 Additional authors for Version 3.1: 
 Z. Gan, Y. Zhao, N. E. Schultz, D. Truhlar, E. Epifanovsky, M. Oana

 Additional authors for Version 3.2: 
 R. Baer, B. R. Brooks, D. Casanova, J.-D. Chai, C.-L. Cheng, C. Cramer, 
 D. Crittenden, A. Ghysels, G. Hawkins, E. G. Hohenstein, C. Kelley, 
 W. Kurlancheek, D. Liotard, E. Livshits, P. Manohar, A. Marenich, 
 D. Neuhauser, R. Olson, M. A. Rohrdanz, K. S. Thanthiriwatte, A. J. W. Thom, 
 V. Vanovschi, C. F. Williams, Q. Wu, Z.-Q. You

 Additional authors for Version 4.0: 
 A. Aspuru-Guzik, Y. Bernard, C. Chang, J. Deng, A. Dreuw, M. Diedenhofen, 
 R. G. Edgar, D. Ghosh, W. A. Goddard III, M. Goldey, L. D. Jacobson, 
 M. Gordon, B. Kaduk, I. Kaliman, K. Khistyaev, R. King, A. Klamt, 
 D. Kosenkov, T. Kus, D. Lambrecht, A. Landau, A. W. Lange, K. Lawler, F. Liu, 
 J. Liu, R. Olivares-Amaya, S. P. Mao, J. Parkhill, N. Russ, M. Schmidt, 
 N. Shenvi, D. Small, Y. C. Su, E. Sundstrom, L. Vogt, O. Vydrov, M. Watson, 
 M. Wormit, X. Xu, S. Yeganeh, I. Y. Zhang, D. Zuev

 Additional authors for Version 4.1: 
 X. Feng, M. W. D. Hanson-Heine, P. Horn, H. Ji, A. Laurent, R. Peverati, 
 N. Mardirossian, N. Sergueev, S. Sharada, P. Zimmerman

 Q-Chem, Version 4.1, Q-Chem, Inc., Pittsburgh, PA (2013).

 Parts of Q-Chem use Armadillo 3.6.2 (Piazza del Duomo).
 http://arma.sourceforge.net/

 Intel X86 Linux Version 4.1.2

 Q-chem begins on Fri Feb 28 08:30:07 2014  

Host: 
0

     Scratch files written to /home/qchem_scratch/qchem36364//
 Feb414 28838_zgan 2267   
 Parallel job on  1  processors
Processing $rem in /home/QCHEM/config/preferences.
 MEM_TOTAL  2000 
Finally everything over in PARseQInput

--------------------------------------------------------------
User input:
--------------------------------------------------------------
$comment
C1,3ea
$end
$molecule
0 1
C       1.1856830473    -1.9872964388    -0.0000381700
C      -0.9543994809    -1.2298920317    -1.2645195104
C      -0.9543318571    -1.2298381769     1.2645022133
C      -1.8029130639    -1.4652321655     0.0000195767
C       0.3101335603    -2.0952181072     1.2686922100
C       0.3100884771    -2.0952420184    -1.2687356828
H      -0.6961141698    -0.1791752297    -1.3492781765
H      -0.6960091697    -0.1791243293     1.3491889074
H      -2.0833434382    -2.5179786245     0.0000513142
H       0.0009924138    -3.1353419640     1.3616915305
H       0.0009658884    -3.1353732656    -1.3617115406
H      -1.5472898589    -1.4645474008    -2.1443640079
H      -1.5471820635    -1.4644305063     2.1443904523
H       0.9091462216    -1.8735317808     2.1468115864
H       0.9090646050    -1.8735552866    -2.1468801277
C      -3.0843267456    -0.6648645841     0.0000302675
C      -5.5232330839     0.8179436504     0.0000227448
C      -3.0855338133     0.7782795732     0.0000462227
C      -4.3721285832    -1.3255175648     0.0000078584
C      -5.5381439853    -0.6348857735     0.0000044571
C      -4.2318343277     1.500023513     0.0000431989
H      -2.1443666611     1.2987144846     0.0000616294
H      -4.3940925327    -2.4015241678    -0.0000054937
H      -6.4832007867    -1.1479489828    -0.0000111595
H      -4.2281334379     2.5720290709     0.0000558483
C      -6.7465057111     1.5756969775     0.0000206616
H      -7.6745779718     1.0009195305     0.0000052637
O      -6.7769844978     2.7871698963     0.0000348906
H       1.8159892561    -2.8708678956    -0.0000427247
C       2.1649350686    -0.8173120535    -0.0000529557
H       3.8491291029    -2.0982715478     0.0000968379
C       3.5039759207    -1.0781796214     0.0000299194
C       2.6702432553     1.5588111340    -0.0001453860
C       4.4822842365    -0.0491543237     0.0000316356
C       1.7613226833     0.5504041615    -0.0001430227
C       4.0632531717     1.2929631799    -0.0000573021
C       5.8741209645    -0.3331997348     0.0001195101
H       0.7199067478     0.8019298321    -0.0002124017
H       4.7118744145     3.3503999532    -0.0001253518
H       2.3357086823     2.5821218192    -0.0002155583
C       6.7867985390     0.6727770962     0.0001184057
H       6.1963834533    -1.3602069825     0.0001874893
H       7.8388715592     0.4483274443     0.0001856421
C       6.3629287097     2.0242650410     0.0000286895
H       7.0973903778     2.8101075052     0.0000286797
C       5.0383769095     2.3246842883    -0.0000568356
$end


$rem
MEM_TOTAL	20000
MEM_STATIC	5000
JOBTYPE    freq 
SYMMETRY   FALSE
EXCHANGE     	HF
CORRELATION  	none  (built-in)
BASIS       	6-31g** 
cis_state_deriv   1
cis_n_roots       3
cis_singlets      false
cis_triplets      true
max_scf_cycles=100
max_cis_cycles=100
$end

--------------------------------------------------------------
 ----------------------------------------------------------------
             Standard Nuclear Orientation (Angstroms)
    I     Atom           X                Y                Z
 ----------------------------------------------------------------
    1      C       1.1856834608    -1.9872969479    -0.0000381699
    2      C      -0.9543992250    -1.2298929861    -1.2645195104
    3      C      -0.9543316012    -1.2298391312     1.2645022133
    4      C      -1.8029127590    -1.4652332964     0.0000195767
    5      C       0.3101339963    -2.0952187984     1.2686922101
    6      C       0.3100889131    -2.0952427097    -1.2687356827
    7      H      -0.6961141325    -0.1791761304    -1.3492781765
    8      H      -0.6960091324    -0.1791252299     1.3491889074
    9      H      -2.0833429143    -2.5179798138     0.0000513143
   10      H       0.0009930662    -3.1353427195     1.3616915306
   11      H       0.0009665408    -3.1353740212    -1.3617115405
   12      H      -1.5472895542    -1.4645484786    -2.1443640079
   13      H      -1.5471817588    -1.4644315839     2.1443904523
   14      H       0.9091466114    -1.8735323474     2.1468115865
   15      H       0.9090649948    -1.8735558533    -2.1468801276
   16      C      -3.0843266073    -0.6648659816     0.0000302675
   17      C      -5.5232332541     0.8179417454     0.0000227448
   18      C      -3.0855339752     0.7782781754     0.0000462227
   19      C      -4.3721283074    -1.3255192303     0.0000078584
   20      C      -5.5381438532    -0.6348876816     0.0000044571
   21      C      -4.2318346398     1.5000218767     0.0000431989
   22      H      -2.1443669313     1.2987132826     0.0000616294
   23      H      -4.3940920330    -2.4015258378    -0.0000054936
   24      H      -6.4832005478    -1.1479510875    -0.0000111595
   25      H      -4.2281339731     2.5720274354     0.0000558482
   26      C      -6.7465060389     1.5756948180     0.0000206616
   27      H      -7.6745781801     1.0009171779     0.0000052637
   28      O      -6.7769850777     2.7871677304     0.0000348905
   29      H       1.8159898534    -2.8708682735    -0.0000427246
   30      C       2.1649352387    -0.8173123588    -0.0000529557
   31      H       3.8491295395    -2.0982715027     0.0000968380
   32      C       3.5039761450    -1.0781796481     0.0000299194
   33      C       2.6702429310     1.5588109338    -0.0001453860
   34      C       4.4822842467    -0.0491541469     0.0000316356
   35      C       1.7613225688     0.5504037722    -0.0001430227
   36      C       4.0632529027     1.2929632696    -0.0000573021
   37      C       5.8741210338    -0.3331992684     0.0001195101
   38      H       0.7199065809     0.8019292261    -0.0002124017
   39      H       4.7118737174     3.3504001778    -0.0001253519
   40      H       2.3357081450     2.5821215494    -0.0002155584
   41      C       6.7867983990     0.6727777525     0.0001184057
   42      H       6.1963837363    -1.3602064490     0.0001874893
   43      H       7.8388714659     0.4483283195     0.0001856421
   44      C       6.3629282885     2.0242656091     0.0000286895
   45      H       7.0973897931     2.8101082262     0.0000286796
   46      C       5.0383764258     2.3246845809    -0.0000568357
 ----------------------------------------------------------------
 Molecular Point Group                 C1    NOp =  1
 Largest Abelian Subgroup              C1    NOp =  1
 Nuclear Repulsion Energy =  1823.2890136034 hartrees
 There are       84 alpha and       84 beta electrons
 Requested basis set is 6-31G(d,p)
 There are 162 shells and 470 basis functions

Total QAlloc Memory Limit  20000 MB
Mega-Array Size      4888 MB
MEM_STATIC part      5000 MB
 A cutoff of  1.0D-11 yielded   6950 shell pairs
 There are     59379 function pairs
 Smallest overlap matrix eigenvalue = 2.61E-04
 Guess from superposition of atomic densities
 Warning:  Energy on first SCF cycle will be non-variational
 A restricted Hartree-Fock SCF calculation will be
 performed using Pulay DIIS extrapolation
 SCF converges when DIIS error is below 1.0E-08
 ---------------------------------------
  Cycle       Energy         DIIS Error
 ---------------------------------------
    1    -969.0696608468      3.68E-02
    2    -958.3771174513      2.90E-03
    3    -958.6327381830      1.58E-03
    4    -958.6843000108      5.82E-04
    5    -958.6940297079      7.17E-05
    6    -958.6942648654      3.52E-05
    7    -958.6943336173      1.58E-05
    8    -958.6943522622      7.05E-06
    9    -958.6943563761      2.13E-06
   10    -958.6943567919      9.26E-07
   11    -958.6943568829      4.68E-07
   12    -958.6943569150      2.07E-07
   13    -958.6943569212      8.76E-08
   14    -958.6943569223      2.75E-08
   15    -958.6943569207      1.12E-08
   16    -958.6943569156      3.20E-09 Convergence criterion met
 ---------------------------------------
 SCF time:  CPU 536.46 s  wall 541.66 s
 SCF   energy in the final basis set = -958.6943569156
 Total energy in the final basis set = -958.6943569156
 Direct RCIS calculation will be performed
 Triplet excitation energies requested
 CIS energy converged when residual is below 10e- 6
 ---------------------------------------------------
 Iter    Rts Conv    Rts Left    Ttl Dev     Max Dev
 ---------------------------------------------------
   1         0           3      0.000565    0.000433
   2         0           3      0.000350    0.000159
   3         0           3      0.000671    0.000339
   4         0           3      0.000303    0.000181
   5         0           3      0.000256    0.000124
   6         0           3      0.000214    0.000148
   7         0           3      0.000100    0.000076
   8         1           2      0.000043    0.000036
   9         1           2      0.000026    0.000023
  10         1           2      0.000029    0.000026
  11         2           1      0.000034    0.000032
  12         2           1      0.000072    0.000070
  13         2           1      0.000131    0.000130
  14         2           1      0.000060    0.000059
  15         2           1      0.000034    0.000033
  16         2           1      0.000035    0.000034
  17         2           1      0.000028    0.000026
  18         2           1      0.000014    0.000013
  19         2           1      0.000007    0.000006
  20         2           1      0.000005    0.000004
  21         2           1      0.000003    0.000002
  22         3           0      0.000002    0.000001    Roots Converged
 ---------------------------------------------------
 
 
 ---------------------------------------------------
               CIS Excitation Energies              
 ---------------------------------------------------

 Excited state   1: excitation energy (eV) =    2.5573
    Total energy for state   1:   -958.600378778490
    Multiplicity: Triplet 
    Trans. Mom.:  0.0000 X   0.0000 Y   0.0000 Z
    Strength   :  0.0000
    D( 81) --> V(  4) amplitude =  0.2881
    D( 82) --> V(  1) amplitude =  0.8960

 Excited state   2: excitation energy (eV) =    2.7698
    Total energy for state   2:   -958.592567756529
    Multiplicity: Triplet 
    Trans. Mom.:  0.0000 X   0.0000 Y   0.0000 Z
    Strength   :  0.0000
    D( 80) --> V(  5) amplitude = -0.3232
    D( 83) --> V(  3) amplitude =  0.3680
    D( 84) --> V(  2) amplitude = -0.8067

 Excited state   3: excitation energy (eV) =    4.1493
    Total energy for state   3:   -958.541872440558
    Multiplicity: Triplet 
    Trans. Mom.:  0.0000 X   0.0000 Y   0.0000 Z
    Strength   :  0.0000
    D( 80) --> V(  2) amplitude =  0.6634
    D( 84) --> V(  5) amplitude =  0.6452
 
 ---------------------------------------------------
 Calculating Relaxed Density
 ---------------------------------------------------
 Iter    Rts Conv    Rts Left    Ttl Dev     Max Dev
 ---------------------------------------------------
   1         0           3      0.000270    0.000153
   2         0           3      0.000087    0.000055
   3         0           3      0.000052    0.000039
   4         0           3      0.000016    0.000011
   5         0           3      0.000006    0.000004
   6         2           1      0.000001    0.000001
   7         3           0      0.000000    0.000000    Roots Converged
 ---------------------------------------------------
  Timing summary (seconds)
  CPU time       2305.99s
  System time       0.00s
  Wall time      2307.84s
 STSman time:  CPU 0.00 s  wall 0.00 s

 Analysis of SCF Wavefunction
 
 --------------------------------------------------------------
                    Orbital Energies (a.u.)
 --------------------------------------------------------------
 
 Alpha MOs
 -- Occupied --
-20.548 -11.322 -11.273 -11.260 -11.253 -11.248 -11.244 -11.244
-11.242 -11.240 -11.240 -11.238 -11.237 -11.235 -11.233 -11.233
-11.232 -11.232 -11.231 -11.229 -11.228 -11.228 -11.226 -11.226
 -1.378  -1.180  -1.162  -1.135  -1.108  -1.063  -1.046  -1.035
 -1.016  -1.014  -0.994  -0.974  -0.901  -0.852  -0.847  -0.847
 -0.835  -0.814  -0.808  -0.779  -0.756  -0.706  -0.703  -0.695
 -0.673  -0.663  -0.648  -0.640  -0.623  -0.615  -0.615  -0.609
 -0.602  -0.599  -0.585  -0.581  -0.576  -0.567  -0.556  -0.539
 -0.533  -0.532  -0.527  -0.521  -0.503  -0.497  -0.496  -0.482
 -0.476  -0.471  -0.450  -0.450  -0.438  -0.431  -0.417  -0.380
 -0.356  -0.317  -0.313  -0.288
 -- Virtual --
  0.070   0.099   0.128   0.140   0.187   0.207   0.213   0.219
  0.241   0.246   0.258   0.268   0.274   0.276   0.283   0.283
  0.295   0.304   0.312   0.321   0.321   0.327   0.332   0.339
  0.340   0.345   0.357   0.359   0.374   0.379   0.393   0.399
  0.408   0.413   0.418   0.419   0.435   0.459   0.467   0.467
  0.476   0.481   0.498   0.499   0.504   0.517   0.519   0.535
  0.542   0.561   0.563   0.594   0.655   0.689   0.711   0.712
  0.718   0.722   0.725   0.731   0.735   0.741   0.743   0.743
  0.752   0.756   0.763   0.764   0.784   0.790   0.792   0.799
  0.800   0.803   0.810   0.815   0.820   0.822   0.828   0.842
  0.844   0.857   0.862   0.865   0.870   0.876   0.897   0.899
  0.910   0.911   0.923   0.924   0.928   0.946   0.948   0.962
  0.971   0.994   1.001   1.016   1.033   1.038   1.044   1.047
  1.055   1.064   1.069   1.073   1.074   1.079   1.080   1.086
  1.086   1.091   1.102   1.104   1.112   1.118   1.118   1.122
  1.131   1.133   1.145   1.148   1.168   1.175   1.183   1.198
  1.206   1.213   1.219   1.220   1.225   1.227   1.227   1.237
  1.239   1.258   1.279   1.283   1.302   1.307   1.318   1.332
  1.351   1.355   1.372   1.381   1.401   1.402   1.407   1.414
  1.441   1.464   1.480   1.485   1.500   1.502   1.506   1.540
  1.548   1.548   1.584   1.591   1.603   1.619   1.632   1.634
  1.649   1.657   1.659   1.670   1.672   1.686   1.691   1.704
  1.707   1.708   1.726   1.728   1.732   1.763   1.767   1.795
  1.799   1.816   1.838   1.857   1.885   1.938   1.949   1.968
  2.015   2.021   2.033   2.036   2.050   2.053   2.055   2.092
  2.095   2.096   2.108   2.111   2.124   2.130   2.137   2.143
  2.159   2.164   2.172   2.187   2.192   2.198   2.202   2.206
  2.211   2.223   2.228   2.236   2.241   2.245   2.269   2.272
  2.275   2.277   2.290   2.295   2.301   2.309   2.328   2.337
  2.351   2.373   2.380   2.399   2.399   2.406   2.436   2.446
  2.453   2.460   2.462   2.482   2.487   2.493   2.502   2.523
  2.530   2.532   2.546   2.552   2.567   2.579   2.594   2.602
  2.623   2.631   2.641   2.646   2.650   2.660   2.662   2.670
  2.683   2.698   2.707   2.710   2.713   2.716   2.734   2.745
  2.750   2.759   2.774   2.779   2.786   2.795   2.804   2.809
  2.820   2.829   2.838   2.852   2.854   2.864   2.866   2.886
  2.892   2.906   2.909   2.915   2.929   2.931   2.943   2.947
  2.951   2.957   2.983   2.990   2.996   3.012   3.015   3.030
  3.035   3.058   3.064   3.070   3.085   3.095   3.114   3.116
  3.148   3.157   3.170   3.171   3.181   3.189   3.202   3.211
  3.220   3.229   3.252   3.265   3.286   3.294   3.306   3.344
  3.370   3.383   3.403   3.428   3.440   3.481   3.521   3.531
  3.557   3.628   3.630   3.638   3.645   3.660   3.673   3.687
  3.723   3.726   3.739   3.753   3.798   3.813   3.815   3.858
  3.885   3.889   3.891   3.902   3.914   3.924   3.979   4.170
  4.202   4.316   4.363   4.525   4.545   4.570   4.573   4.584
  4.604   4.615   4.625   4.718   4.750   4.788   4.830   4.852
  4.856   4.903   4.941   4.967   5.094   5.167   5.199   5.220
  5.276   5.385
 --------------------------------------------------------------
 
          Ground-State Mulliken Net Atomic Charges

     Atom                 Charge (a.u.)
  ----------------------------------------
      1 C                    -0.162690
      2 C                    -0.206071
      3 C                    -0.206073
      4 C                    -0.162759
      5 C                    -0.211687
      6 C                    -0.211690
      7 H                     0.113970
      8 H                     0.113971
      9 H                     0.123908
     10 H                     0.112312
     11 H                     0.112313
     12 H                     0.126971
     13 H                     0.126972
     14 H                     0.130409
     15 H                     0.130410
     16 C                     0.027999
     17 C                    -0.179926
     18 C                    -0.154039
     19 C                    -0.174107
     20 C                    -0.108918
     21 C                    -0.087108
     22 H                     0.150468
     23 H                     0.151271
     24 H                     0.165378
     25 H                     0.197942
     26 C                     0.396409
     27 H                     0.107255
     28 O                    -0.539148
     29 H                     0.129975
     30 C                     0.021374
     31 H                     0.146525
     32 C                    -0.164774
     33 C                    -0.127053
     34 C                    -0.024590
     35 C                    -0.152237
     36 C                    -0.040639
     37 C                    -0.127499
     38 H                     0.137095
     39 H                     0.152640
     40 H                     0.153766
     41 C                    -0.157453
     42 H                     0.151185
     43 H                     0.151015
     44 C                    -0.160086
     45 H                     0.151115
     46 C                    -0.124099
  ----------------------------------------
  Sum of atomic charges =     0.000000

 -----------------------------------------------------------------
                    Cartesian Multipole Moments
 -----------------------------------------------------------------
    Charge (ESU x 10^10)
                 0.0000
    Dipole Moment (Debye)
         X       2.2654      Y      -3.9626      Z       0.0000
       Tot       4.5644
    Quadrupole Moments (Debye-Ang)
        XX    -149.5166     XY      25.7085     YY    -140.8278
        XZ       0.0010     YZ      -0.0007     ZZ    -148.7844
    Octopole Moments (Debye-Ang^2)
       XXX     147.0085    XXY    -168.5910    XYY      89.9415
       YYY     -23.4276    XXZ       0.0033    XYZ      -0.0016
       YYZ      -0.0014    XZZ     -23.6997    YZZ      -2.2112
       ZZZ       0.0001
    Hexadecapole Moments (Debye-Ang^3)
      XXXX  -14521.4336   XXXY    1226.7780   XXYY   -3230.4226
      XYYY     279.7947   YYYY   -2138.8195   XXXZ       0.0646
      XXYZ      -0.0148   XYYZ       0.0009   YYYZ      -0.0059
      XXZZ   -2758.6676   XYZZ     -49.6710   YYZZ    -451.2668
      XZZZ      -0.0014   YZZZ       0.0011   ZZZZ    -466.9172
 -----------------------------------------------------------------
 Calculating MO derivatives via CPSCF
   1         3         138      0.157044    0.019850
   2         3         138      0.032386    0.005063
   3         3         138      0.006474    0.001287
   4         8         133      0.000939    0.000188
   5       120          21      0.000064    0.000020
   6       139           2      0.000004    0.000002
   7       141           0      0.000000    0.000000    Roots Converged
 Calculating CIS amplitude derivatives via CPCIS
 CIS relaxed dipole moment
            1
    1  -0.2289408
    2   0.1255642
    3   0.0000013
	Magnitude:	 0.261 au	 0.664 Debye
 CIS Excitation Energy is    0.0939781371
 Gradient of the CIS Excitation Energy
            1           2           3           4           5           6
    1   0.0001317  -0.0009194  -0.0009191   0.0033604  -0.0004033  -0.0004033
    2   0.0001094   0.0013349   0.0013348  -0.0033203  -0.0005329  -0.0005329
    3   0.0000000  -0.0007399   0.0007398   0.0000004  -0.0006142   0.0006144
            7           8           9          10          11          12
    1  -0.0001904  -0.0001904  -0.0003589   0.0000497   0.0000497   0.0000204
    2  -0.0002439  -0.0002439   0.0005958   0.0000024   0.0000024   0.0000735
    3   0.0001133  -0.0001132  -0.0000000   0.0000462  -0.0000462   0.0000822
           13          14          15          16          17          18
    1   0.0000204  -0.0003011  -0.0003011  -0.0463738   0.0620172   0.0215251
    2   0.0000735   0.0001739   0.0001740   0.0216265  -0.0395121  -0.0475040
    3  -0.0000822  -0.0000569   0.0000569  -0.0000012   0.0000000  -0.0000002
           19          20          21          22          23          24
    1   0.0625368  -0.0154925  -0.0671254   0.0006626   0.0011149  -0.0006521
    2   0.0025289   0.0719258  -0.0215350  -0.0006444  -0.0001835  -0.0006157
    3   0.0000009   0.0000008  -0.0000008  -0.0000000   0.0000000  -0.0000000
           25          26          27          28          29          30
    1  -0.0000577  -0.0120835  -0.0014287  -0.0041743  -0.0000779   0.0000801
    2   0.0009624   0.0429095  -0.0005997  -0.0283976   0.0000076   0.0001145
    3   0.0000000   0.0000004  -0.0000000  -0.0000004   0.0000000  -0.0000000
           31          32          33          34          35          36
    1   0.0000135  -0.0000327   0.0000015   0.0000181  -0.0000295  -0.0000078
    2  -0.0000023  -0.0000606   0.0000255   0.0000288  -0.0000631  -0.0000345
    3  -0.0000000   0.0000000  -0.0000000   0.0000000   0.0000000   0.0000000
           37          38          39          40          41          42
    1  -0.0000002  -0.0000287   0.0000030  -0.0000016  -0.0000092   0.0000029
    2  -0.0000293   0.0000593  -0.0000085  -0.0000158  -0.0000096   0.0000059
    3   0.0000000  -0.0000000   0.0000000   0.0000000  -0.0000000  -0.0000000
           43          44          45          46
    1  -0.0000119  -0.0000204  -0.0000093  -0.0000037
    2   0.0000010  -0.0000058  -0.0000083   0.0000330
    3  -0.0000000  -0.0000000  -0.0000000  -0.0000000
gradient:-0.000133
gradient:-0.000108
gradient:-0.000000
gradient:0.000920
gradient:-0.001338
gradient:0.000744
gradient:0.000920
gradient:-0.001338
gradient:-0.000744
gradient:-0.003348
gradient:0.003325
gradient:-0.000000
gradient:0.000401
gradient:0.000533
gradient:0.000616
gradient:0.000401
gradient:0.000533
gradient:-0.000616
gradient:0.000191
gradient:0.000244
gradient:-0.000113
gradient:0.000191
gradient:0.000244
gradient:0.000113
gradient:0.000361
gradient:-0.000597
gradient:0.000000
gradient:-0.000050
gradient:-0.000002
gradient:-0.000047
gradient:-0.000050
gradient:-0.000002
gradient:0.000047
gradient:-0.000019
gradient:-0.000075
gradient:-0.000082
gradient:-0.000019
gradient:-0.000075
gradient:0.000082
gradient:0.000300
gradient:-0.000175
gradient:0.000056
gradient:0.000300
gradient:-0.000175
gradient:-0.000056
gradient:0.046363
gradient:-0.021637
gradient:0.000001
gradient:-0.061992
gradient:0.039489
gradient:-0.000000
gradient:-0.021544
gradient:0.047517
gradient:0.000000
gradient:-0.062527
gradient:-0.002523
gradient:-0.000001
gradient:0.015496
gradient:-0.071918
gradient:-0.000001
gradient:0.067148
gradient:0.021523
gradient:0.000001
gradient:-0.000664
gradient:0.000648
gradient:0.000000
gradient:-0.001117
gradient:0.000180
gradient:-0.000000
gradient:0.000646
gradient:0.000614
gradient:0.000000
gradient:0.000056
gradient:-0.000958
gradient:-0.000000
gradient:0.012062
gradient:-0.042929
gradient:-0.000000
gradient:0.001421
gradient:0.000601
gradient:0.000000
gradient:0.004169
gradient:0.028435
gradient:0.000000
gradient:0.000078
gradient:-0.000008
gradient:-0.000000
gradient:-0.000073
gradient:-0.000115
gradient:0.000000
gradient:-0.000014
gradient:0.000003
gradient:0.000000
gradient:0.000031
gradient:0.000063
gradient:-0.000000
gradient:0.000001
gradient:-0.000028
gradient:0.000000
gradient:-0.000019
gradient:-0.000026
gradient:-0.000000
gradient:0.000031
gradient:0.000065
gradient:-0.000000
gradient:0.000008
gradient:0.000032
gradient:-0.000000
gradient:-0.000000
gradient:0.000035
gradient:-0.000000
gradient:0.000029
gradient:-0.000060
gradient:0.000000
gradient:-0.000004
gradient:0.000010
gradient:-0.000000
gradient:0.000002
gradient:0.000016
gradient:-0.000000
gradient:0.000006
gradient:0.000009
gradient:-0.000000
gradient:-0.000003
gradient:-0.000006
gradient:0.000000
gradient:0.000012
gradient:-0.000000
gradient:0.000000
gradient:0.000017
gradient:0.000003
gradient:0.000000
gradient:0.000010
gradient:0.000007
gradient:0.000000
gradient:0.000006
gradient:-0.000037
gradient:0.000000
gradient:-0.229259
gradient:0.125514
gradient:0.000001
   1        46          95      0.016356    0.003212
   2        68          73      0.003009    0.000480
   3       101          40      0.000593    0.000067
   4       113          28      0.000127    0.000015
   5       132           9      0.000019    0.000003
   6       140           1      0.000001    0.000001
   7       141           0      0.000000    0.000000    Roots Converged
 CPCIS time:  CPU 6934.97 s  wall 7007.96 s
 transition dipole derivative
            1           2           3
    1  -0.0035394   0.0025717   0.0000002
    2  -0.0032910   0.0027561   0.0000000
    3  -0.0000003  -0.0000000   0.0022400
    4  -0.0660478  -0.0116840   0.0085941
    5  -0.0377010   0.0296452   0.0204946
    6   0.0925654  -0.0318462  -0.0792859
    7  -0.0660520  -0.0116801  -0.0085942
    8  -0.0377019   0.0296464  -0.0204930
    9  -0.0925525   0.0318390  -0.0792736
   10   0.3789511  -0.1218753  -0.0000120
   11  -0.0893840   0.0278638   0.0000026
   12  -0.0000200   0.0000072   0.2587301
   13  -0.0128520   0.0125973   0.0024007
   14   0.0231686  -0.0087003   0.0071819
   15   0.0165287  -0.0112178   0.0116998
   16  -0.0128564   0.0126010  -0.0023989
   17   0.0231719  -0.0086983  -0.0071827
   18  -0.0165282   0.0112200   0.0117011
   19   0.0101804   0.0228361  -0.0013555
   20   0.0107847   0.0110960  -0.0029068
   21  -0.0078719  -0.0129141   0.0036714
   22   0.0101809   0.0228351   0.0013565
   23   0.0107835   0.0110948   0.0029063
   24   0.0078702   0.0129102   0.0036714
   25  -0.0146902  -0.0240759   0.0000014
   26   0.0176760   0.0399285   0.0000003
   27   0.0000022  -0.0000035  -0.0009916
   28  -0.0004755  -0.0038472  -0.0003724
   29   0.0001187   0.0064149  -0.0005684
   30  -0.0015415   0.0003692  -0.0001405
   31  -0.0004751  -0.0038481   0.0003721
   32   0.0001183   0.0064154   0.0005688
   33   0.0015413  -0.0003689  -0.0001404
   34  -0.0078989  -0.0010008  -0.0019691
   35   0.0005195  -0.0049395   0.0025011
   36  -0.0027450   0.0094949   0.0053660
   37  -0.0078977  -0.0010007   0.0019702
   38   0.0005191  -0.0049414  -0.0025010
   39   0.0027487  -0.0094888   0.0053651
   40   0.0027152  -0.0048563   0.0011220
   41  -0.0054035   0.0027908  -0.0025425
   42  -0.0032671  -0.0006108  -0.0033207
   43   0.0027156  -0.0048564  -0.0011222
   44  -0.0054040   0.0027909   0.0025427
   45   0.0032673   0.0006108  -0.0033210
   46  -2.1103586  -1.2802845  -0.0000210
   47  -0.8780896  -3.1912687  -0.0000401
   48  -0.0000243  -0.0000422  -0.9493061
   49   2.0696511  -0.0342943   0.0000095
   50   0.3597742   3.0451087   0.0000303
   51   0.0000150   0.0000262   0.8995529
   52   1.5537016  -1.1895350  -0.0000050
   53  -0.6075254   2.8559981   0.0000209
   54   0.0000031   0.0000113   0.6242257
   55   3.1865438   0.5710877   0.0000322
   56  -0.2557266   1.2731773   0.0000054
   57   0.0000250   0.0000175   0.6219263
   58  -1.8075370   0.8697804  -0.0000004
   59   0.8020191  -2.4240505  -0.0000143
   60  -0.0000016  -0.0000127  -0.6560980
   61  -2.7208341   0.3615913  -0.0000153
   62   0.2888579  -1.5138809  -0.0000075
   63  -0.0000170  -0.0000067  -0.6673640
   64  -0.0211199  -0.0124051   0.0000006
   65  -0.0016983   0.0143994   0.0000011
   66   0.0000011   0.0000013  -0.0764334
   67   0.0146230   0.0298187   0.0000014
   68   0.0063629  -0.0237996   0.0000007
   69   0.0000013   0.0000009  -0.0815837
   70   0.0141338   0.0204119  -0.0000005
   71   0.0172170   0.0221845  -0.0000006
   72  -0.0000002  -0.0000004   0.0876564
   73   0.0063727   0.0158066  -0.0000006
   74   0.0088929   0.0426773  -0.0000005
   75  -0.0000008  -0.0000008   0.0861523
   76  -0.5417356   0.7671941   0.0000077
   77   0.7236364  -2.0472132  -0.0000152
   78   0.0000067  -0.0000135  -0.2986543
   79  -0.0110043   0.0271489  -0.0000002
   80   0.0291197   0.0339082   0.0000001
   81  -0.0000001  -0.0000000   0.0447396
   82   0.1510583  -0.0297585  -0.0000012
   83  -0.4000259   1.7680183   0.0000156
   84  -0.0000058   0.0000180   0.2300874
   85   0.0025940  -0.0025795  -0.0000000
   86  -0.0003132   0.0004528   0.0000000
   87   0.0000002   0.0000002  -0.0004398
   88  -0.0029540  -0.0000252  -0.0000000
   89  -0.0040925   0.0009635   0.0000001
   90   0.0000004  -0.0000001  -0.0005060
   91  -0.0005585  -0.0000922  -0.0000000
   92   0.0001961   0.0003139   0.0000000
   93  -0.0000000  -0.0000001  -0.0000112
   94   0.0014161  -0.0006378  -0.0000000
   95   0.0027788  -0.0005581  -0.0000000
   96  -0.0000001   0.0000001   0.0000363
   97  -0.0002305  -0.0011937  -0.0000000
   98  -0.0022150   0.0009441   0.0000000
   99   0.0000002  -0.0000000  -0.0002742
  100  -0.0013203  -0.0001808  -0.0000000
  101  -0.0009474   0.0007849   0.0000000
  102  -0.0000000  -0.0000001  -0.0000422
  103   0.0018709   0.0042806   0.0000001
  104   0.0033331  -0.0018264  -0.0000001
  105  -0.0000001   0.0000007   0.0001677
  106   0.0005881   0.0001340  -0.0000000
  107   0.0016625  -0.0006526  -0.0000000
  108  -0.0000001   0.0000000   0.0000935
  109   0.0004458   0.0006232   0.0000000
  110   0.0013314  -0.0013021  -0.0000000
  111  -0.0000000   0.0000001   0.0000056
  112   0.0007124   0.0002805  -0.0000000
  113  -0.0028315   0.0012330   0.0000000
  114  -0.0000000  -0.0000006   0.0000824
  115  -0.0000694   0.0002701   0.0000000
  116   0.0004702  -0.0001304  -0.0000000
  117  -0.0000000  -0.0000000   0.0000303
  118   0.0003304   0.0005837   0.0000000
  119   0.0009483   0.0002774   0.0000000
  120  -0.0000000  -0.0000001   0.0000242
  121   0.0002622  -0.0004782  -0.0000000
  122   0.0001046  -0.0007335   0.0000000
  123   0.0000000   0.0000000   0.0000432
  124  -0.0001788  -0.0000374  -0.0000000
  125  -0.0001363   0.0004057   0.0000000
  126  -0.0000000  -0.0000000  -0.0000019
  127   0.0003876  -0.0005945  -0.0000000
  128   0.0000034   0.0000307   0.0000000
  129   0.0000000  -0.0000000  -0.0000039
  130   0.0011513  -0.0009718   0.0000000
  131   0.0001935   0.0005187  -0.0000000
  132   0.0000001  -0.0000001   0.0001483
  133   0.0004022  -0.0004371  -0.0000000
  134   0.0002742  -0.0003523  -0.0000000
  135  -0.0000000  -0.0000000  -0.0000249
  136  -0.0003025  -0.0002225  -0.0000000
  137  -0.0015493   0.0012084   0.0000000
  138   0.0000001  -0.0000001  -0.0002003
mem use when entering cis_hess,0,625000000
mem use when entering PV,0,625000000
mem use when entering PT + WS,0,625000000
mem use when entering II^xy,0,625000000
mem use when entering PCM,0,625000000
mem use when entering E^xy,0,625000000
mem use when entering PF,0,625000000
mem use when entering ws,0,625000000
mem use when entering RPA_Hess_IIx,0,625000000
Nshell = 162 
s2Bra.ftnCode() = 360011 
 hess cis_hess_iirx
            1           2           3           4           5           6
    1  -0.0005061   0.0003504   0.0000000   0.0002754  -0.0002516  -0.0000077
    2   0.0003504  -0.0002730  -0.0000000  -0.0002291   0.0001990   0.0000085
    3   0.0000000  -0.0000000  -0.0008562   0.0005955  -0.0000317  -0.0001503
    4   0.0002754  -0.0002291   0.0005955  -0.0800131   0.0254627   0.0102517
    5  -0.0002516   0.0001990  -0.0000317   0.0254627  -0.0128002  -0.0024027
    6  -0.0000077   0.0000085  -0.0001503   0.0102517  -0.0024027  -0.0049677
    7   0.0002755  -0.0002293  -0.0005956  -0.0014061   0.0011885  -0.0000884
    8  -0.0002516   0.0001991   0.0000317   0.0011888   0.0001175  -0.0000754
    9   0.0000078  -0.0000085  -0.0001503   0.0000883   0.0000752  -0.0012826
   10  -0.0009335   0.0010153   0.0000001   0.0707770  -0.0253427  -0.0078361
   11   0.0004827  -0.0005301  -0.0000000  -0.0377241   0.0143080   0.0038916
   12   0.0000002  -0.0000002   0.0024814   0.0566834  -0.0234735   0.0008293
   13   0.0003696  -0.0002972   0.0005195  -0.0016981   0.0006797   0.0004495
   14  -0.0001772   0.0001618  -0.0001116   0.0001240  -0.0002545  -0.0000665
   15   0.0001606  -0.0001274   0.0003646  -0.0006995   0.0002079   0.0003114
   16   0.0003696  -0.0002972  -0.0005195   0.0021187   0.0013097  -0.0012228
   17  -0.0001772   0.0001618   0.0001116   0.0003723   0.0000415   0.0000262
   18  -0.0001606   0.0001274   0.0003647  -0.0016728  -0.0004062   0.0011477
   19   0.0000756  -0.0000681  -0.0000486   0.0028357  -0.0009218  -0.0002333
   20  -0.0000269   0.0000223   0.0000203  -0.0010028   0.0007683  -0.0000002
   21   0.0000365  -0.0000289  -0.0000281   0.0001123  -0.0000383   0.0003829
   22   0.0000756  -0.0000681   0.0000486  -0.0013610   0.0006432   0.0000120
   23  -0.0000269   0.0000223  -0.0000203   0.0004194  -0.0002409   0.0000176
   24  -0.0000365   0.0000289  -0.0000281   0.0007148  -0.0002328  -0.0000098
   25   0.0000040  -0.0000044   0.0000000  -0.0004592   0.0001375   0.0000099
   26  -0.0000000  -0.0000010  -0.0000000  -0.0000441  -0.0000096  -0.0000113
   27  -0.0000000   0.0000000  -0.0001808  -0.0000937  -0.0000624  -0.0001503
   28  -0.0000093   0.0000083  -0.0000150  -0.0000854   0.0000386   0.0000020
   29  -0.0000043   0.0000009  -0.0000097   0.0000375  -0.0000252  -0.0000073
   30  -0.0000033   0.0000029  -0.0000006  -0.0000219   0.0000076   0.0000047
   31  -0.0000093   0.0000083   0.0000150  -0.0002609   0.0000882   0.0000439
   32  -0.0000043   0.0000009   0.0000097   0.0000827  -0.0000456   0.0000008
   33   0.0000033  -0.0000029  -0.0000006   0.0000609  -0.0000246  -0.0000055
   34  -0.0001054   0.0000806   0.0002802   0.0074408  -0.0029130  -0.0001872
   35   0.0000558  -0.0000421  -0.0001669  -0.0038033   0.0017829   0.0000302
   36  -0.0000143   0.0000078  -0.0000665  -0.0009810   0.0002784   0.0005269
   37  -0.0001054   0.0000806  -0.0002802   0.0005755  -0.0005204   0.0000954
   38   0.0000558  -0.0000421   0.0001668  -0.0004255   0.0003074  -0.0000600
   39   0.0000143  -0.0000078  -0.0000665  -0.0002443   0.0000557   0.0001103
   40  -0.0000481   0.0000364  -0.0000818  -0.0000499  -0.0000606   0.0000457
   41   0.0000349  -0.0000384   0.0000524  -0.0000557   0.0000805  -0.0000301
   42  -0.0000025   0.0000041  -0.0000230   0.0000314  -0.0000445  -0.0000082
   43  -0.0000481   0.0000364   0.0000818   0.0003333  -0.0000320  -0.0001639
   44   0.0000349  -0.0000384  -0.0000524  -0.0003598   0.0000853   0.0001439
   45   0.0000025  -0.0000041  -0.0000230  -0.0000729   0.0000358   0.0000247
   46   0.0001733  -0.0003852  -0.0000000  -0.0023365   0.0001114  -0.0001737
   47   0.0000061   0.0001473   0.0000000   0.0101769  -0.0020183  -0.0014779
   48  -0.0000001   0.0000001  -0.0025851  -0.0368944   0.0105788   0.0030361
   49  -0.0000371  -0.0000712  -0.0000000   0.0008818  -0.0005651   0.0001682
   50   0.0000292   0.0000462   0.0000000  -0.0008779   0.0007328  -0.0001301
   51   0.0000000  -0.0000000  -0.0002303   0.0022947  -0.0009350  -0.0005287
   52   0.0000147  -0.0000048  -0.0000000  -0.0025418   0.0011078   0.0001367
   53  -0.0000762  -0.0000533   0.0000000   0.0066581  -0.0034214   0.0002308
   54  -0.0000002   0.0000001  -0.0000711  -0.0357504   0.0105933   0.0008107
   55   0.0001088   0.0000209   0.0000000   0.0043391   0.0003948  -0.0011803
   56   0.0000381   0.0000344  -0.0000000   0.0006922   0.0004712  -0.0003201
   57   0.0000000   0.0000000   0.0002264   0.0062423   0.0048323  -0.0008782
   58   0.0000141  -0.0000127  -0.0000000  -0.0013055   0.0002618   0.0000988
   59  -0.0000103  -0.0000247  -0.0000000   0.0011057  -0.0006398  -0.0000340
   60  -0.0000000   0.0000000   0.0002744   0.0017268   0.0008785  -0.0001913
   61   0.0000081  -0.0000121   0.0000000   0.0023192  -0.0011748  -0.0000471
   62  -0.0000241   0.0000288  -0.0000000  -0.0019473   0.0006332   0.0001738
   63   0.0000000   0.0000000   0.0000271  -0.0016876  -0.0004300   0.0007610
   64   0.0000001   0.0000002  -0.0000000  -0.0000288   0.0000333  -0.0000019
   65  -0.0000001   0.0000008  -0.0000000  -0.0000975   0.0000530   0.0000037
   66  -0.0000000   0.0000000   0.0000373  -0.0004096   0.0004839  -0.0000655
   67  -0.0000008   0.0000001  -0.0000000   0.0000322  -0.0000141   0.0000050
   68  -0.0000007  -0.0000005   0.0000000   0.0000641  -0.0000159   0.0000001
   69  -0.0000000   0.0000000   0.0000099   0.0000718   0.0001694  -0.0000507
   70   0.0000005  -0.0000000  -0.0000000  -0.0001110   0.0000357   0.0000105
   71  -0.0000002   0.0000004  -0.0000000  -0.0000737   0.0000327   0.0000053
   72  -0.0000000   0.0000000   0.0000561   0.0005200  -0.0000753   0.0001016
   73   0.0000004  -0.0000003  -0.0000000   0.0000199  -0.0000047  -0.0000009
   74  -0.0000015   0.0000007  -0.0000000  -0.0000795   0.0000284   0.0000117
   75  -0.0000000  -0.0000000   0.0001026  -0.0005288  -0.0001618   0.0001283
   76   0.0000357   0.0000493   0.0000000  -0.0003366   0.0003300  -0.0001978
   77  -0.0000413  -0.0000815  -0.0000000   0.0015299  -0.0008941   0.0002714
   78   0.0000000  -0.0000000   0.0000021   0.0002790   0.0000815   0.0000561
   79   0.0000001   0.0000004   0.0000000  -0.0000075   0.0000138  -0.0000032
   80  -0.0000001   0.0000004   0.0000000  -0.0000260   0.0000138  -0.0000007
   81  -0.0000000   0.0000000  -0.0000004   0.0000619   0.0000326  -0.0000201
   82  -0.0000046  -0.0000030  -0.0000000   0.0000008  -0.0000225   0.0000233
   83   0.0000294   0.0000554   0.0000000  -0.0010512   0.0006845  -0.0002158
   84  -0.0000000  -0.0000000  -0.0000127  -0.0004676  -0.0000149   0.0000230
   85  -0.0000013   0.0000012   0.0000000   0.0000109  -0.0000024  -0.0000015
   86   0.0000032  -0.0000020   0.0000000  -0.0000062   0.0000026   0.0000012
   87  -0.0000000   0.0000000   0.0002480  -0.0002443   0.0000782   0.0000206
   88   0.0000147  -0.0000100  -0.0000000   0.0000374  -0.0000096  -0.0000041
   89  -0.0000391   0.0000406  -0.0000000  -0.0001070   0.0000238   0.0000159
   90   0.0000000   0.0000000   0.0004664   0.0001466  -0.0000882   0.0000310
   91  -0.0000001   0.0000002   0.0000000   0.0000006  -0.0000001  -0.0000002
   92  -0.0000000   0.0000001  -0.0000000  -0.0000010   0.0000002   0.0000002
   93   0.0000000  -0.0000000  -0.0000008   0.0000030  -0.0000016   0.0000005
   94   0.0000004  -0.0000012   0.0000000   0.0000271  -0.0000089  -0.0000027
   95  -0.0000004   0.0000008   0.0000000   0.0000187  -0.0000062  -0.0000020
   96   0.0000000  -0.0000000  -0.0000720  -0.0000525   0.0000047   0.0000057
   97   0.0000017   0.0000001   0.0000000   0.0000033  -0.0000006   0.0000005
   98   0.0000014   0.0000000  -0.0000000  -0.0000004  -0.0000006   0.0000009
   99   0.0000000  -0.0000000  -0.0000232   0.0000050   0.0000034  -0.0000032
  100  -0.0000003  -0.0000002  -0.0000000   0.0000037  -0.0000011  -0.0000011
  101  -0.0000007   0.0000000  -0.0000000   0.0000044  -0.0000017  -0.0000011
  102  -0.0000000   0.0000000   0.0000084   0.0000310  -0.0000030  -0.0000059
  103  -0.0000083   0.0000055   0.0000000  -0.0000403   0.0000108   0.0000023
  104  -0.0000076   0.0000037   0.0000000  -0.0000153   0.0000057  -0.0000001
  105  -0.0000000  -0.0000000  -0.0000920  -0.0000169  -0.0000062   0.0000045
  106  -0.0000009  -0.0000002  -0.0000000   0.0000049  -0.0000017  -0.0000012
  107   0.0000000   0.0000001   0.0000000  -0.0000024   0.0000011   0.0000006
  108  -0.0000000   0.0000000   0.0000259  -0.0000037  -0.0000006   0.0000009
  109   0.0000007  -0.0000002  -0.0000000  -0.0000024   0.0000008   0.0000007
  110   0.0000001   0.0000000   0.0000000   0.0000014  -0.0000002  -0.0000001
  111   0.0000000   0.0000000   0.0000012  -0.0000022   0.0000005   0.0000005
  112   0.0000002   0.0000002  -0.0000000   0.0000054  -0.0000006  -0.0000007
  113   0.0000004  -0.0000006  -0.0000000  -0.0000080   0.0000007   0.0000007
  114  -0.0000000   0.0000000  -0.0000279  -0.0000773   0.0000348   0.0000005
  115   0.0000000   0.0000000  -0.0000000  -0.0000000  -0.0000000   0.0000000
  116   0.0000000   0.0000000  -0.0000000   0.0000004  -0.0000000  -0.0000000
  117   0.0000000  -0.0000000  -0.0000005   0.0000002   0.0000000   0.0000001
  118  -0.0000000   0.0000000   0.0000000   0.0000006  -0.0000001  -0.0000001
  119   0.0000001  -0.0000000  -0.0000000   0.0000015  -0.0000003  -0.0000001
  120  -0.0000000   0.0000000  -0.0000034  -0.0000006   0.0000009  -0.0000004
  121  -0.0000001  -0.0000001   0.0000000   0.0000010  -0.0000001  -0.0000002
  122  -0.0000003  -0.0000001  -0.0000000   0.0000005  -0.0000002  -0.0000004
  123  -0.0000000  -0.0000000  -0.0000021   0.0000012   0.0000000  -0.0000007
  124   0.0000000  -0.0000000   0.0000000   0.0000001   0.0000000  -0.0000000
  125  -0.0000000   0.0000000   0.0000000  -0.0000001  -0.0000000   0.0000000
  126   0.0000000  -0.0000000   0.0000002  -0.0000002  -0.0000000   0.0000002
  127   0.0000000   0.0000000   0.0000000   0.0000002  -0.0000000  -0.0000000
  128  -0.0000000  -0.0000000  -0.0000000   0.0000000  -0.0000000  -0.0000000
  129   0.0000000  -0.0000000  -0.0000002  -0.0000001   0.0000000   0.0000001
  130  -0.0000002  -0.0000000  -0.0000000   0.0000005  -0.0000002  -0.0000003
  131   0.0000002   0.0000002   0.0000000  -0.0000007   0.0000001   0.0000004
  132  -0.0000000   0.0000000   0.0000019  -0.0000008  -0.0000002   0.0000004
  133   0.0000000   0.0000000   0.0000000   0.0000004  -0.0000000  -0.0000000
  134   0.0000000   0.0000000  -0.0000000   0.0000002  -0.0000000  -0.0000000
  135  -0.0000000  -0.0000000  -0.0000003   0.0000002  -0.0000000   0.0000000
  136   0.0000003   0.0000002   0.0000000  -0.0000013   0.0000006   0.0000005
  137   0.0000000   0.0000001  -0.0000000  -0.0000026   0.0000005   0.0000004
  138   0.0000000  -0.0000000  -0.0000028   0.0000012   0.0000001  -0.0000009
            7           8           9          10          11          12
    1   0.0002755  -0.0002516   0.0000078  -0.0009335   0.0004827   0.0000002
    2  -0.0002293   0.0001991  -0.0000085   0.0010153  -0.0005301  -0.0000002
    3  -0.0005956   0.0000317  -0.0001503   0.0000001  -0.0000000   0.0024814
    4  -0.0014061   0.0011888   0.0000883   0.0707770  -0.0377241   0.0566834
    5   0.0011885   0.0001175   0.0000752  -0.0253427   0.0143080  -0.0234735
    6  -0.0000884  -0.0000754  -0.0012826  -0.0078361   0.0038916   0.0008293
    7  -0.0800070   0.0254584  -0.0102467   0.0707741  -0.0377205  -0.0566901
    8   0.0254584  -0.0127979   0.0024008  -0.0253405   0.0143057   0.0234747
    9  -0.0102467   0.0024008  -0.0049659   0.0078322  -0.0038893   0.0008313
   10   0.0707741  -0.0253405   0.0078322  -0.2446877   0.1246324   0.0000206
   11  -0.0377205   0.0143057  -0.0038893   0.1246324  -0.0758899   0.0000080
   12  -0.0566901   0.0234747   0.0008313   0.0000206   0.0000080  -1.1991645
   13   0.0021183   0.0013101   0.0012224   0.0068111  -0.0035084  -0.0206634
   14   0.0003725   0.0000414  -0.0000261  -0.0018910   0.0011023   0.0057337
   15   0.0016723   0.0004063   0.0011473   0.0020313  -0.0010894  -0.0071331
   16  -0.0016979   0.0006796  -0.0004494   0.0068104  -0.0035086   0.0206623
   17   0.0001241  -0.0002545   0.0000665  -0.0018911   0.0011026  -0.0057346
   18   0.0006996  -0.0002079   0.0003114  -0.0020314   0.0010897  -0.0071339
   19  -0.0013611   0.0006432  -0.0000119   0.0016461  -0.0009816   0.0000064
   20   0.0004194  -0.0002410  -0.0000176  -0.0002300   0.0001865   0.0003236
   21  -0.0007147   0.0002327  -0.0000097   0.0008499  -0.0004820  -0.0001938
   22   0.0028345  -0.0009211   0.0002331   0.0016459  -0.0009816  -0.0000059
   23  -0.0010024   0.0007679   0.0000002  -0.0002300   0.0001865  -0.0003237
   24  -0.0001123   0.0000383   0.0003829  -0.0008501   0.0004821  -0.0001940
   25  -0.0004593   0.0001375  -0.0000099   0.0017578  -0.0012795  -0.0000016
   26  -0.0000441  -0.0000096   0.0000113  -0.0000368   0.0007884   0.0000012
   27   0.0000944   0.0000622  -0.0001503  -0.0000013   0.0000008   0.0089505
   28  -0.0002608   0.0000882  -0.0000439   0.0003807  -0.0002064  -0.0004943
   29   0.0000827  -0.0000456  -0.0000008  -0.0002037   0.0001124   0.0007364
   30  -0.0000609   0.0000246  -0.0000055   0.0001046  -0.0000595  -0.0000815
   31  -0.0000854   0.0000386  -0.0000020   0.0003808  -0.0002065   0.0004945
   32   0.0000376  -0.0000252   0.0000073  -0.0002037   0.0001125  -0.0007365
   33   0.0000219  -0.0000076   0.0000047  -0.0001046   0.0000595  -0.0000816
   34   0.0005755  -0.0005204  -0.0000954  -0.0038569   0.0023340  -0.0039060
   35  -0.0004255   0.0003074   0.0000600   0.0022190  -0.0013342   0.0016752
   36   0.0002443  -0.0000557   0.0001103   0.0000534  -0.0000293   0.0017340
   37   0.0074411  -0.0029130   0.0001869  -0.0038575   0.0023344   0.0039073
   38  -0.0038032   0.0017828  -0.0000300   0.0022191  -0.0013344  -0.0016757
   39   0.0009810  -0.0002784   0.0005268  -0.0000536   0.0000294   0.0017341
   40   0.0003333  -0.0000319   0.0001639  -0.0005847   0.0002774   0.0040303
   41  -0.0003598   0.0000852  -0.0001439   0.0006490  -0.0003332  -0.0021707
   42   0.0000729  -0.0000358   0.0000247  -0.0002238   0.0001184   0.0009129
   43  -0.0000499  -0.0000606  -0.0000457  -0.0005847   0.0002775  -0.0040304
   44  -0.0000558   0.0000805   0.0000301   0.0006490  -0.0003333   0.0021707
   45  -0.0000314   0.0000445  -0.0000082   0.0002237  -0.0001184   0.0009129
   46  -0.0023371   0.0001117   0.0001740   0.1032438  -0.0466286  -0.0000124
   47   0.0101773  -0.0020183   0.0014774  -0.0701281   0.0501782   0.0000060
   48   0.0369068  -0.0105811   0.0030353  -0.0000131   0.0000007   0.3905316
   49   0.0008819  -0.0005651  -0.0001681  -0.0031695   0.0023281   0.0000017
   50  -0.0008779   0.0007328   0.0001301   0.0021118  -0.0015896   0.0000027
   51  -0.0022955   0.0009355  -0.0005285   0.0000040   0.0000010  -0.2103729
   52  -0.0025426   0.0011080  -0.0001367  -0.0029225   0.0037185  -0.0000003
   53   0.0066584  -0.0034214  -0.0002309  -0.0038496  -0.0014150  -0.0000073
   54   0.0357491  -0.0105927   0.0008085  -0.0000062   0.0000016   0.3779140
   55   0.0043383   0.0003953   0.0011798  -0.0178412   0.0044903   0.0000019
   56   0.0006920   0.0004715   0.0003199   0.0038551  -0.0031158  -0.0000041
   57  -0.0062585  -0.0048273  -0.0008790   0.0000126  -0.0000143   0.1581118
   58  -0.0013055   0.0002618  -0.0000988   0.0132260  -0.0060336  -0.0000010
   59   0.0011057  -0.0006397   0.0000339  -0.0022493   0.0006432  -0.0000016
   60  -0.0017251  -0.0008792  -0.0001910  -0.0000044  -0.0000008   0.1690265
   61   0.0023194  -0.0011750   0.0000470   0.0007855  -0.0011772  -0.0000020
   62  -0.0019475   0.0006332  -0.0001737  -0.0055124   0.0034360  -0.0000037
   63   0.0016925   0.0004283   0.0007611  -0.0000066   0.0000011   0.2227561
   64  -0.0000289   0.0000333   0.0000019   0.0011289  -0.0010275  -0.0000005
   65  -0.0000975   0.0000530  -0.0000037   0.0019019  -0.0014613  -0.0000004
   66   0.0004101  -0.0004843  -0.0000655  -0.0000001  -0.0000005   0.0219362
   67   0.0000322  -0.0000141  -0.0000050  -0.0012425   0.0005045  -0.0000006
   68   0.0000641  -0.0000159  -0.0000001  -0.0022077   0.0007569   0.0000001
   69  -0.0000718  -0.0001694  -0.0000507  -0.0000002  -0.0000003   0.0285186
   70  -0.0001110   0.0000357  -0.0000105   0.0001461  -0.0000369  -0.0000001
   71  -0.0000736   0.0000327  -0.0000053  -0.0001511   0.0000679  -0.0000002
   72  -0.0005204   0.0000754   0.0001016  -0.0000001  -0.0000003   0.0136326
   73   0.0000199  -0.0000047   0.0000009   0.0001420  -0.0001000  -0.0000002
   74  -0.0000796   0.0000284  -0.0000117   0.0003076  -0.0001214  -0.0000003
   75   0.0005292   0.0001617   0.0001282  -0.0000005   0.0000001   0.0230325
   76  -0.0003366   0.0003300   0.0001978   0.0007555  -0.0006628   0.0000001
   77   0.0015297  -0.0008940  -0.0002715   0.0014195  -0.0001819  -0.0000003
   78  -0.0002786  -0.0000816   0.0000562  -0.0000006   0.0000002   0.0037235
   79  -0.0000075   0.0000138   0.0000032  -0.0001414   0.0000762   0.0000000
   80  -0.0000260   0.0000138   0.0000007  -0.0000777   0.0000288   0.0000000
   81  -0.0000620  -0.0000326  -0.0000201   0.0000001  -0.0000001  -0.0006622
   82   0.0000008  -0.0000225  -0.0000233  -0.0004497   0.0002567   0.0000000
   83  -0.0010511   0.0006844   0.0002158  -0.0015295   0.0003774   0.0000002
   84   0.0004674   0.0000149   0.0000230   0.0000002  -0.0000000  -0.0024282
   85   0.0000109  -0.0000024   0.0000015  -0.0000652   0.0000333   0.0000000
   86  -0.0000062   0.0000026  -0.0000012   0.0000143  -0.0000075   0.0000000
   87   0.0002443  -0.0000782   0.0000206  -0.0000000  -0.0000000   0.0013327
   88   0.0000374  -0.0000096   0.0000040   0.0000335  -0.0000181  -0.0000000
   89  -0.0001070   0.0000238  -0.0000159   0.0001548  -0.0000827   0.0000001
   90  -0.0001464   0.0000881   0.0000311  -0.0000001   0.0000001  -0.0010630
   91   0.0000006  -0.0000001   0.0000002   0.0000103  -0.0000049   0.0000000
   92  -0.0000010   0.0000002  -0.0000002  -0.0000027   0.0000013   0.0000000
   93  -0.0000030   0.0000016   0.0000005   0.0000000   0.0000000  -0.0000276
   94   0.0000271  -0.0000089   0.0000027  -0.0000502   0.0000270   0.0000000
   95   0.0000187  -0.0000062   0.0000020  -0.0000682   0.0000349   0.0000000
   96   0.0000524  -0.0000047   0.0000057   0.0000000  -0.0000000  -0.0005055
   97   0.0000033  -0.0000006  -0.0000005  -0.0000013   0.0000008   0.0000000
   98  -0.0000004  -0.0000006  -0.0000009   0.0000356  -0.0000181  -0.0000000
   99  -0.0000050  -0.0000034  -0.0000032  -0.0000000   0.0000000  -0.0000591
  100   0.0000037  -0.0000011   0.0000011   0.0000114  -0.0000054  -0.0000000
  101   0.0000044  -0.0000017   0.0000011   0.0000130  -0.0000063   0.0000000
  102  -0.0000310   0.0000030  -0.0000059  -0.0000000  -0.0000000   0.0002601
  103  -0.0000403   0.0000108  -0.0000023  -0.0000085   0.0000038   0.0000000
  104  -0.0000153   0.0000057   0.0000001  -0.0000516   0.0000250   0.0000000
  105   0.0000169   0.0000063   0.0000045   0.0000000  -0.0000000   0.0002638
  106   0.0000049  -0.0000017   0.0000012  -0.0000144   0.0000068  -0.0000000
  107  -0.0000024   0.0000011  -0.0000006  -0.0000270   0.0000132   0.0000000
  108   0.0000037   0.0000006   0.0000009   0.0000000  -0.0000000   0.0001021
  109  -0.0000024   0.0000008  -0.0000007   0.0000031  -0.0000015   0.0000000
  110   0.0000014  -0.0000002   0.0000001  -0.0000268   0.0000132   0.0000000
  111   0.0000022  -0.0000005   0.0000005  -0.0000000   0.0000000  -0.0000086
  112   0.0000054  -0.0000006   0.0000007  -0.0000194   0.0000097  -0.0000000
  113  -0.0000080   0.0000007  -0.0000007   0.0000594  -0.0000289  -0.0000000
  114   0.0000773  -0.0000348   0.0000005  -0.0000000   0.0000000  -0.0004019
  115  -0.0000000  -0.0000000  -0.0000000   0.0000017  -0.0000008  -0.0000000
  116   0.0000004  -0.0000000   0.0000000  -0.0000086   0.0000043  -0.0000000
  117  -0.0000002  -0.0000000   0.0000001   0.0000000  -0.0000000  -0.0000027
  118   0.0000006  -0.0000001   0.0000001  -0.0000057   0.0000030  -0.0000000
  119   0.0000015  -0.0000003   0.0000001  -0.0000176   0.0000088  -0.0000000
  120   0.0000006  -0.0000009  -0.0000004   0.0000000   0.0000000  -0.0000224
  121   0.0000010  -0.0000001   0.0000002  -0.0000060   0.0000031  -0.0000000
  122   0.0000005  -0.0000002   0.0000004  -0.0000072   0.0000033   0.0000000
  123  -0.0000012  -0.0000000  -0.0000007   0.0000000  -0.0000000   0.0000157
  124   0.0000001   0.0000000   0.0000000   0.0000028  -0.0000014   0.0000000
  125  -0.0000001  -0.0000000  -0.0000000   0.0000035  -0.0000017  -0.0000000
  126   0.0000002   0.0000000   0.0000002  -0.0000000   0.0000000  -0.0000057
  127   0.0000002  -0.0000000   0.0000000  -0.0000082   0.0000040   0.0000000
  128   0.0000000  -0.0000000   0.0000000  -0.0000001   0.0000001  -0.0000000
  129   0.0000001  -0.0000000   0.0000001  -0.0000000   0.0000000  -0.0000013
  130   0.0000005  -0.0000002   0.0000003  -0.0000134   0.0000064   0.0000000
  131  -0.0000007   0.0000001  -0.0000004  -0.0000022   0.0000011   0.0000000
  132   0.0000008   0.0000002   0.0000004  -0.0000000   0.0000000   0.0000094
  133   0.0000004  -0.0000000   0.0000000  -0.0000076   0.0000037   0.0000000
  134   0.0000002  -0.0000000   0.0000000  -0.0000054   0.0000027   0.0000000
  135  -0.0000002   0.0000000   0.0000000   0.0000000  -0.0000000   0.0000005
  136  -0.0000013   0.0000006  -0.0000005  -0.0000028   0.0000014   0.0000000
  137  -0.0000026   0.0000005  -0.0000004   0.0000321  -0.0000158  -0.0000000
  138  -0.0000012  -0.0000001  -0.0000009  -0.0000000   0.0000000  -0.0000107
           13          14          15          16          17          18
    1   0.0003696  -0.0001772   0.0001606   0.0003696  -0.0001772  -0.0001606
    2  -0.0002972   0.0001618  -0.0001274  -0.0002972   0.0001618   0.0001274
    3   0.0005195  -0.0001116   0.0003646  -0.0005195   0.0001116   0.0003647
    4  -0.0016981   0.0001240  -0.0006995   0.0021187   0.0003723  -0.0016728
    5   0.0006797  -0.0002545   0.0002079   0.0013097   0.0000415  -0.0004062
    6   0.0004495  -0.0000665   0.0003114  -0.0012228   0.0000262   0.0011477
    7   0.0021183   0.0003725   0.0016723  -0.0016979   0.0001241   0.0006996
    8   0.0013101   0.0000414   0.0004063   0.0006796  -0.0002545  -0.0002079
    9   0.0012224  -0.0000261   0.0011473  -0.0004494   0.0000665   0.0003114
   10   0.0068111  -0.0018910   0.0020313   0.0068104  -0.0018911  -0.0020314
   11  -0.0035084   0.0011023  -0.0010894  -0.0035086   0.0011026   0.0010897
   12  -0.0206634   0.0057337  -0.0071331   0.0206623  -0.0057346  -0.0071339
   13  -0.0050708   0.0010855  -0.0021204  -0.0006152   0.0002967   0.0002193
   14   0.0010855  -0.0007483   0.0002834   0.0002967  -0.0000342  -0.0001340
   15  -0.0021204   0.0002834  -0.0013060  -0.0002193   0.0001339  -0.0000267
   16  -0.0006152   0.0002967  -0.0002193  -0.0050709   0.0010858   0.0021208
   17   0.0002967  -0.0000342   0.0001339   0.0010858  -0.0007484  -0.0002836
   18   0.0002193  -0.0001340  -0.0000267   0.0021208  -0.0002836  -0.0013064
   19  -0.0000355   0.0000696   0.0000293  -0.0004306   0.0000781   0.0001491
   20  -0.0000228  -0.0000044  -0.0000150   0.0000257  -0.0000082  -0.0000359
   21   0.0000311   0.0000163   0.0000193  -0.0000520   0.0000566  -0.0000113
   22  -0.0004305   0.0000781  -0.0001490  -0.0000355   0.0000696  -0.0000293
   23   0.0000257  -0.0000082   0.0000359  -0.0000228  -0.0000044   0.0000150
   24   0.0000520  -0.0000566  -0.0000112  -0.0000311  -0.0000163   0.0000193
   25  -0.0000014   0.0000066   0.0000030  -0.0000013   0.0000066  -0.0000030
   26   0.0000048   0.0000001   0.0000039   0.0000048   0.0000001  -0.0000039
   27   0.0001671  -0.0000120   0.0000554  -0.0001671   0.0000120   0.0000554
   28   0.0000653  -0.0000140   0.0000362  -0.0000118   0.0000013   0.0000068
   29   0.0000592   0.0000042   0.0000160   0.0000151  -0.0000058  -0.0000026
   30   0.0000291  -0.0000122   0.0000013  -0.0000014   0.0000020  -0.0000046
   31  -0.0000119   0.0000013  -0.0000068   0.0000653  -0.0000140  -0.0000362
   32   0.0000151  -0.0000058   0.0000026   0.0000592   0.0000042  -0.0000160
   33   0.0000014  -0.0000020  -0.0000046  -0.0000290   0.0000122   0.0000013
   34  -0.0001151  -0.0000301  -0.0001242   0.0002260  -0.0000110  -0.0000710
   35   0.0000697   0.0000188   0.0000747  -0.0001651  -0.0000241   0.0000629
   36   0.0000906  -0.0000113   0.0000505   0.0001118  -0.0000779  -0.0000839
   37   0.0002261  -0.0000110   0.0000710  -0.0001152  -0.0000301   0.0001243
   38  -0.0001651  -0.0000241  -0.0000629   0.0000697   0.0000188  -0.0000747
   39  -0.0001118   0.0000779  -0.0000838  -0.0000906   0.0000113   0.0000506
   40   0.0004712  -0.0003435  -0.0000066   0.0001183  -0.0000222  -0.0000492
   41  -0.0002584   0.0002630  -0.0000050  -0.0000873   0.0000114   0.0000336
   42   0.0001446  -0.0001068   0.0000216   0.0000480  -0.0000088   0.0000055
   43   0.0001183  -0.0000222   0.0000492   0.0004713  -0.0003435   0.0000066
   44  -0.0000873   0.0000114  -0.0000336  -0.0002585   0.0002630   0.0000050
   45  -0.0000480   0.0000088   0.0000055  -0.0001446   0.0001068   0.0000216
   46  -0.0007689   0.0005640   0.0001241  -0.0007683   0.0005639  -0.0001244
   47   0.0002017  -0.0005902  -0.0001365   0.0002017  -0.0005903   0.0001366
   48   0.0121190  -0.0040702   0.0026663  -0.0121193   0.0040707   0.0026671
   49   0.0001151   0.0001271   0.0001829   0.0001152   0.0001271  -0.0001829
   50  -0.0001146  -0.0000958  -0.0001291  -0.0001147  -0.0000958   0.0001291
   51  -0.0016883   0.0004180  -0.0007169   0.0016882  -0.0004182  -0.0007169
   52  -0.0002495  -0.0000182  -0.0001274  -0.0002497  -0.0000182   0.0001275
   53   0.0009151   0.0002712   0.0005438   0.0009155   0.0002711  -0.0005441
   54   0.0015269  -0.0003988   0.0001155  -0.0015265   0.0003986   0.0001154
   55  -0.0013067  -0.0002028  -0.0008701  -0.0013069  -0.0002027   0.0008704
   56  -0.0002859  -0.0000936  -0.0002202  -0.0002858  -0.0000936   0.0002202
   57   0.0035880  -0.0004319   0.0025770  -0.0035872   0.0004324   0.0025768
   58  -0.0000027  -0.0000044   0.0000660  -0.0000027  -0.0000045  -0.0000661
   59  -0.0000664   0.0000521   0.0000009  -0.0000664   0.0000521  -0.0000010
   60   0.0021852  -0.0004167   0.0012264  -0.0021848   0.0004169   0.0012264
   61   0.0000842   0.0000657   0.0000204   0.0000842   0.0000657  -0.0000204
   62   0.0000612  -0.0000917   0.0000363   0.0000612  -0.0000918  -0.0000363
   63   0.0020203  -0.0005733   0.0006474  -0.0020206   0.0005735   0.0006477
   64  -0.0000059   0.0000013  -0.0000047  -0.0000059   0.0000013   0.0000047
   65  -0.0000102   0.0000009  -0.0000065  -0.0000102   0.0000009   0.0000065
   66   0.0001317  -0.0000607   0.0000974  -0.0001317   0.0000607   0.0000974
   67   0.0000106   0.0000000   0.0000052   0.0000106   0.0000000  -0.0000052
   68   0.0000081  -0.0000007   0.0000060   0.0000081  -0.0000007  -0.0000060
   69   0.0002261  -0.0000540   0.0001260  -0.0002261   0.0000540   0.0001260
   70  -0.0000007   0.0000009  -0.0000004  -0.0000007   0.0000009   0.0000004
   71  -0.0000007   0.0000006  -0.0000008  -0.0000007   0.0000006   0.0000008
   72   0.0000297  -0.0000262   0.0000068  -0.0000297   0.0000262   0.0000067
   73  -0.0000010   0.0000001  -0.0000005  -0.0000010   0.0000001   0.0000005
   74   0.0000102   0.0000008   0.0000062   0.0000102   0.0000008  -0.0000062
   75  -0.0000105  -0.0000324  -0.0000406   0.0000104   0.0000324  -0.0000406
   76  -0.0000723  -0.0000921  -0.0001275  -0.0000723  -0.0000921   0.0001275
   77   0.0001542   0.0001760   0.0002355   0.0001542   0.0001760  -0.0002356
   78   0.0001648  -0.0000170   0.0000328  -0.0001648   0.0000170   0.0000328
   79  -0.0000025  -0.0000007  -0.0000027  -0.0000025  -0.0000007   0.0000027
   80  -0.0000015  -0.0000005  -0.0000017  -0.0000015  -0.0000005   0.0000017
   81   0.0000180   0.0000070   0.0000176  -0.0000180  -0.0000070   0.0000176
   82   0.0000097   0.0000127   0.0000146   0.0000097   0.0000127  -0.0000146
   83  -0.0001292  -0.0001359  -0.0001903  -0.0001292  -0.0001359   0.0001904
   84  -0.0000531   0.0000056  -0.0000438   0.0000531  -0.0000056  -0.0000438
   85   0.0000012  -0.0000009   0.0000002   0.0000012  -0.0000009  -0.0000002
   86  -0.0000024   0.0000016  -0.0000008  -0.0000024   0.0000016   0.0000008
   87  -0.0000533   0.0000196  -0.0000398   0.0000533  -0.0000196  -0.0000398
   88  -0.0000195   0.0000057  -0.0000092  -0.0000195   0.0000057   0.0000092
   89   0.0000453  -0.0000148   0.0000234   0.0000453  -0.0000148  -0.0000233
   90  -0.0002047   0.0000668  -0.0000909   0.0002047  -0.0000669  -0.0000909
   91  -0.0000008   0.0000000  -0.0000003  -0.0000008   0.0000000   0.0000003
   92   0.0000004   0.0000000   0.0000002   0.0000004   0.0000000  -0.0000002
   93  -0.0000018   0.0000004   0.0000001   0.0000018  -0.0000004   0.0000001
   94  -0.0000026  -0.0000009  -0.0000023  -0.0000026  -0.0000009   0.0000023
   95  -0.0000006  -0.0000008  -0.0000012  -0.0000006  -0.0000008   0.0000012
   96  -0.0000218   0.0000029  -0.0000129   0.0000218  -0.0000029  -0.0000129
   97  -0.0000015   0.0000005  -0.0000007  -0.0000015   0.0000005   0.0000007
   98  -0.0000008   0.0000003  -0.0000004  -0.0000008   0.0000003   0.0000004
   99   0.0000074  -0.0000015   0.0000035  -0.0000074   0.0000015   0.0000035
  100  -0.0000010  -0.0000002  -0.0000005  -0.0000010  -0.0000002   0.0000005
  101  -0.0000008  -0.0000003  -0.0000003  -0.0000008  -0.0000003   0.0000003
  102   0.0000217  -0.0000046   0.0000124  -0.0000217   0.0000046   0.0000124
  103   0.0000121  -0.0000030   0.0000054   0.0000121  -0.0000030  -0.0000054
  104   0.0000080  -0.0000026   0.0000036   0.0000080  -0.0000026  -0.0000036
  105   0.0000133  -0.0000136   0.0000073  -0.0000133   0.0000136   0.0000073
  106   0.0000002  -0.0000003  -0.0000000   0.0000002  -0.0000003   0.0000000
  107   0.0000014   0.0000000   0.0000005   0.0000014   0.0000000  -0.0000005
  108  -0.0000032   0.0000015  -0.0000014   0.0000032  -0.0000015  -0.0000014
  109  -0.0000000   0.0000002  -0.0000000  -0.0000000   0.0000002   0.0000000
  110   0.0000008  -0.0000000   0.0000003   0.0000008  -0.0000000  -0.0000003
  111  -0.0000015   0.0000002  -0.0000011   0.0000015  -0.0000002  -0.0000011
  112  -0.0000002   0.0000002  -0.0000002  -0.0000002   0.0000002   0.0000002
  113  -0.0000008   0.0000002  -0.0000005  -0.0000008   0.0000002   0.0000005
  114  -0.0000006  -0.0000017  -0.0000028   0.0000006   0.0000017  -0.0000028
  115  -0.0000000   0.0000000  -0.0000000  -0.0000000   0.0000000   0.0000000
  116   0.0000003  -0.0000000   0.0000001   0.0000003  -0.0000000  -0.0000001
  117   0.0000001  -0.0000000   0.0000001  -0.0000001   0.0000000   0.0000001
  118   0.0000002  -0.0000000   0.0000001   0.0000002  -0.0000000  -0.0000001
  119   0.0000006   0.0000000   0.0000002   0.0000006   0.0000000  -0.0000002
  120   0.0000011  -0.0000001   0.0000007  -0.0000011   0.0000001   0.0000007
  121   0.0000001  -0.0000000   0.0000001   0.0000001  -0.0000000  -0.0000001
  122   0.0000002  -0.0000001   0.0000001   0.0000002  -0.0000001  -0.0000001
  123   0.0000021  -0.0000004   0.0000013  -0.0000021   0.0000004   0.0000013
  124  -0.0000001   0.0000000  -0.0000001  -0.0000001   0.0000000   0.0000001
  125  -0.0000001   0.0000000  -0.0000000  -0.0000001   0.0000000   0.0000000
  126  -0.0000005   0.0000001  -0.0000003   0.0000005  -0.0000001  -0.0000003
  127   0.0000003  -0.0000000   0.0000001   0.0000003  -0.0000000  -0.0000001
  128   0.0000000  -0.0000000   0.0000000   0.0000000  -0.0000000  -0.0000000
  129  -0.0000000  -0.0000000  -0.0000000   0.0000000   0.0000000  -0.0000000
  130   0.0000005  -0.0000001   0.0000001   0.0000005  -0.0000001  -0.0000001
  131   0.0000002  -0.0000000   0.0000000   0.0000002  -0.0000000  -0.0000000
  132  -0.0000007  -0.0000000  -0.0000005   0.0000007   0.0000000  -0.0000005
  133   0.0000002  -0.0000000   0.0000001   0.0000002  -0.0000000  -0.0000001
  134   0.0000002   0.0000000   0.0000001   0.0000002   0.0000000  -0.0000001
  135   0.0000002  -0.0000001   0.0000001  -0.0000002   0.0000001   0.0000001
  136   0.0000002   0.0000001   0.0000001   0.0000002   0.0000001  -0.0000001
  137  -0.0000007   0.0000000  -0.0000002  -0.0000007   0.0000000   0.0000002
  138   0.0000011  -0.0000000   0.0000009  -0.0000011   0.0000000   0.0000009
           19          20          21          22          23          24
    1   0.0000756  -0.0000269   0.0000365   0.0000756  -0.0000269  -0.0000365
    2  -0.0000681   0.0000223  -0.0000289  -0.0000681   0.0000223   0.0000289
    3  -0.0000486   0.0000203  -0.0000281   0.0000486  -0.0000203  -0.0000281
    4   0.0028357  -0.0010028   0.0001123  -0.0013610   0.0004194   0.0007148
    5  -0.0009218   0.0007683  -0.0000383   0.0006432  -0.0002409  -0.0002328
    6  -0.0002333  -0.0000002   0.0003829   0.0000120   0.0000176  -0.0000098
    7  -0.0013611   0.0004194  -0.0007147   0.0028345  -0.0010024  -0.0001123
    8   0.0006432  -0.0002410   0.0002327  -0.0009211   0.0007679   0.0000383
    9  -0.0000119  -0.0000176  -0.0000097   0.0002331   0.0000002   0.0003829
   10   0.0016461  -0.0002300   0.0008499   0.0016459  -0.0002300  -0.0008501
   11  -0.0009816   0.0001865  -0.0004820  -0.0009816   0.0001865   0.0004821
   12   0.0000064   0.0003236  -0.0001938  -0.0000059  -0.0003237  -0.0001940
   13  -0.0000355  -0.0000228   0.0000311  -0.0004305   0.0000257   0.0000520
   14   0.0000696  -0.0000044   0.0000163   0.0000781  -0.0000082  -0.0000566
   15   0.0000293  -0.0000150   0.0000193  -0.0001490   0.0000359  -0.0000112
   16  -0.0004306   0.0000257  -0.0000520  -0.0000355  -0.0000228  -0.0000311
   17   0.0000781  -0.0000082   0.0000566   0.0000696  -0.0000044  -0.0000163
   18   0.0001491  -0.0000359  -0.0000113  -0.0000293   0.0000150   0.0000193
   19  -0.0022520   0.0006616  -0.0001637   0.0003650  -0.0001008  -0.0000558
   20   0.0006616  -0.0005581   0.0001106  -0.0001008   0.0000510  -0.0000025
   21  -0.0001637   0.0001106  -0.0003910   0.0000557   0.0000025  -0.0000121
   22   0.0003650  -0.0001008   0.0000557  -0.0022511   0.0006613   0.0001638
   23  -0.0001008   0.0000510   0.0000025   0.0006613  -0.0005578  -0.0001106
   24  -0.0000558  -0.0000025  -0.0000121   0.0001638  -0.0001106  -0.0003909
   25  -0.0000047  -0.0000020   0.0000058  -0.0000047  -0.0000020  -0.0000058
   26   0.0000084   0.0000014  -0.0000027   0.0000085   0.0000014   0.0000027
   27  -0.0000563   0.0000150  -0.0000599   0.0000563  -0.0000150  -0.0000599
   28   0.0000038  -0.0000015   0.0000021  -0.0000188   0.0000090   0.0000086
   29  -0.0000002   0.0000011  -0.0000009   0.0000149  -0.0000049  -0.0000028
   30   0.0000013  -0.0000005   0.0000003  -0.0000055   0.0000038   0.0000033
   31  -0.0000188   0.0000090  -0.0000086   0.0000038  -0.0000015  -0.0000021
   32   0.0000149  -0.0000049   0.0000028  -0.0000002   0.0000011   0.0000009
   33   0.0000055  -0.0000038   0.0000033  -0.0000013   0.0000005   0.0000003
   34  -0.0000190  -0.0000727   0.0001155   0.0001138  -0.0000446  -0.0000602
   35  -0.0000094   0.0000512  -0.0000692  -0.0000737   0.0000255   0.0000323
   36   0.0000276  -0.0000056   0.0000107  -0.0000014   0.0000076   0.0000066
   37   0.0001138  -0.0000446   0.0000602  -0.0000190  -0.0000727  -0.0001155
   38  -0.0000737   0.0000255  -0.0000323  -0.0000095   0.0000512   0.0000692
   39   0.0000014  -0.0000076   0.0000066  -0.0000276   0.0000056   0.0000107
   40   0.0000293  -0.0000020  -0.0000004   0.0000608  -0.0000065  -0.0000251
   41  -0.0000197   0.0000016  -0.0000000  -0.0000519   0.0000125   0.0000249
   42   0.0000083  -0.0000002   0.0000001   0.0000249  -0.0000020  -0.0000089
   43   0.0000608  -0.0000065   0.0000251   0.0000293  -0.0000020   0.0000004
   44  -0.0000519   0.0000125  -0.0000249  -0.0000197   0.0000016   0.0000000
   45  -0.0000249   0.0000020  -0.0000089  -0.0000083   0.0000002   0.0000001
   46  -0.0006937   0.0003883  -0.0001141  -0.0006936   0.0003883   0.0001142
   47   0.0001286  -0.0004395   0.0001218   0.0001284  -0.0004394  -0.0001219
   48  -0.0025526   0.0003211  -0.0001937   0.0025537  -0.0003212  -0.0001940
   49  -0.0000431   0.0000279   0.0000561  -0.0000431   0.0000279  -0.0000561
   50  -0.0000843  -0.0000693   0.0000078  -0.0000843  -0.0000693  -0.0000078
   51   0.0007899  -0.0000205   0.0001361  -0.0007890   0.0000202   0.0001360
   52  -0.0003051   0.0000128  -0.0000736  -0.0003049   0.0000127   0.0000736
   53   0.0009122   0.0001739   0.0001793   0.0009119   0.0001739  -0.0001793
   54   0.0043162   0.0000284   0.0013601  -0.0043165  -0.0000282   0.0013605
   55  -0.0003706   0.0001899  -0.0002668  -0.0003704   0.0001898   0.0002667
   56   0.0000009  -0.0000239  -0.0000710   0.0000009  -0.0000239   0.0000710
   57  -0.0014314   0.0002422  -0.0002998   0.0014315  -0.0002425  -0.0003001
   58  -0.0001035  -0.0001401   0.0001160  -0.0001035  -0.0001401  -0.0001160
   59  -0.0000209   0.0001410  -0.0000240  -0.0000208   0.0001410   0.0000240
   60  -0.0005469   0.0002023   0.0002320   0.0005468  -0.0002024   0.0002320
   61   0.0004804  -0.0000865  -0.0000577   0.0004802  -0.0000864   0.0000577
   62  -0.0002326  -0.0000776   0.0000548  -0.0002325  -0.0000776  -0.0000547
   63  -0.0006586  -0.0007574  -0.0009739   0.0006574   0.0007575  -0.0009737
   64   0.0000103  -0.0000014  -0.0000024   0.0000104  -0.0000014   0.0000024
   65   0.0000229  -0.0000034  -0.0000038   0.0000229  -0.0000034   0.0000038
   66   0.0003022  -0.0001619   0.0000148  -0.0003030   0.0001623   0.0000148
   67   0.0000038  -0.0000007   0.0000011   0.0000038  -0.0000007  -0.0000011
   68   0.0000027  -0.0000043  -0.0000005   0.0000027  -0.0000043   0.0000005
   69  -0.0000052  -0.0000061   0.0000029   0.0000051   0.0000061   0.0000029
   70   0.0000052  -0.0000011   0.0000016   0.0000052  -0.0000011  -0.0000016
   71   0.0000062  -0.0000010   0.0000007   0.0000062  -0.0000010  -0.0000007
   72  -0.0000424   0.0000002   0.0000219   0.0000424  -0.0000003   0.0000219
   73  -0.0000036   0.0000015  -0.0000009  -0.0000036   0.0000015   0.0000009
   74  -0.0000164   0.0000027  -0.0000056  -0.0000164   0.0000027   0.0000056
   75  -0.0000607   0.0000065  -0.0000189   0.0000605  -0.0000064  -0.0000188
   76  -0.0000090   0.0000069  -0.0000152  -0.0000089   0.0000069   0.0000152
   77   0.0000040   0.0000392  -0.0000215   0.0000040   0.0000392   0.0000215
   78   0.0002408  -0.0002586   0.0000112  -0.0002409   0.0002586   0.0000112
   79   0.0000015  -0.0000002  -0.0000002   0.0000015  -0.0000002   0.0000002
   80   0.0000004  -0.0000002   0.0000003   0.0000004  -0.0000002  -0.0000003
   81   0.0000078   0.0000120   0.0000166  -0.0000078  -0.0000120   0.0000165
   82   0.0000099   0.0000026  -0.0000012   0.0000099   0.0000026   0.0000012
   83   0.0000157  -0.0000415   0.0000183   0.0000157  -0.0000415  -0.0000183
   84  -0.0000412   0.0000286  -0.0000333   0.0000412  -0.0000286  -0.0000333
   85   0.0000013  -0.0000003   0.0000006   0.0000013  -0.0000003  -0.0000006
   86  -0.0000005   0.0000001  -0.0000003  -0.0000005   0.0000001   0.0000003
   87   0.0000133  -0.0000070   0.0000108  -0.0000133   0.0000070   0.0000108
   88  -0.0000036   0.0000002  -0.0000006  -0.0000036   0.0000002   0.0000006
   89   0.0000069  -0.0000004  -0.0000002   0.0000069  -0.0000004   0.0000002
   90  -0.0000519  -0.0000005  -0.0000021   0.0000519   0.0000005  -0.0000022
   91  -0.0000002   0.0000000  -0.0000001  -0.0000002   0.0000000   0.0000001
   92   0.0000002  -0.0000000   0.0000000   0.0000002  -0.0000000  -0.0000000
   93  -0.0000005   0.0000001  -0.0000003   0.0000005  -0.0000001  -0.0000003
   94  -0.0000004  -0.0000002   0.0000007  -0.0000004  -0.0000002  -0.0000007
   95   0.0000005  -0.0000003   0.0000008   0.0000005  -0.0000003  -0.0000008
   96   0.0000258  -0.0000028   0.0000051  -0.0000258   0.0000028   0.0000051
   97  -0.0000016  -0.0000000  -0.0000002  -0.0000016  -0.0000000   0.0000002
   98  -0.0000016  -0.0000003  -0.0000004  -0.0000016  -0.0000003   0.0000004
   99  -0.0000030  -0.0000002   0.0000001   0.0000030   0.0000002   0.0000001
  100  -0.0000003  -0.0000000  -0.0000001  -0.0000003  -0.0000000   0.0000001
  101  -0.0000003  -0.0000000  -0.0000001  -0.0000003  -0.0000000   0.0000001
  102  -0.0000117   0.0000018  -0.0000026   0.0000117  -0.0000018  -0.0000026
  103   0.0000135  -0.0000020   0.0000023   0.0000135  -0.0000020  -0.0000023
  104   0.0000055  -0.0000002   0.0000010   0.0000056  -0.0000002  -0.0000010
  105  -0.0000011   0.0000043  -0.0000071   0.0000011  -0.0000043  -0.0000071
  106  -0.0000001  -0.0000000  -0.0000000  -0.0000001  -0.0000000   0.0000000
  107   0.0000005   0.0000000   0.0000002   0.0000005   0.0000000  -0.0000002
  108  -0.0000024  -0.0000000   0.0000000   0.0000024   0.0000000   0.0000000
  109   0.0000001   0.0000000   0.0000000   0.0000001   0.0000000  -0.0000000
  110   0.0000000   0.0000000   0.0000001   0.0000000   0.0000000  -0.0000001
  111   0.0000003  -0.0000001   0.0000000  -0.0000003   0.0000001   0.0000000
  112   0.0000003  -0.0000007  -0.0000003   0.0000003  -0.0000007   0.0000003
  113   0.0000003   0.0000002   0.0000002   0.0000003   0.0000001  -0.0000002
  114   0.0000769  -0.0000151   0.0000115  -0.0000769   0.0000151   0.0000115
  115   0.0000000  -0.0000000  -0.0000000   0.0000000  -0.0000000   0.0000000
  116   0.0000001  -0.0000000   0.0000000   0.0000001  -0.0000000  -0.0000000
  117  -0.0000000   0.0000000  -0.0000000   0.0000000  -0.0000000  -0.0000000
  118   0.0000002  -0.0000000   0.0000000   0.0000002  -0.0000000  -0.0000000
  119   0.0000001  -0.0000000   0.0000001   0.0000001  -0.0000000  -0.0000001
  120   0.0000018  -0.0000001   0.0000003  -0.0000018   0.0000001   0.0000003
  121  -0.0000002   0.0000000  -0.0000000  -0.0000002   0.0000000   0.0000000
  122   0.0000002  -0.0000000   0.0000000   0.0000002  -0.0000000  -0.0000000
  123  -0.0000003   0.0000001  -0.0000001   0.0000003  -0.0000001  -0.0000001
  124  -0.0000001   0.0000000  -0.0000000  -0.0000001   0.0000000   0.0000000
  125   0.0000000  -0.0000000  -0.0000000   0.0000000  -0.0000000   0.0000000
  126   0.0000002  -0.0000000   0.0000000  -0.0000002   0.0000000   0.0000000
  127   0.0000000   0.0000000   0.0000000   0.0000000   0.0000000  -0.0000000
  128   0.0000000  -0.0000000  -0.0000000   0.0000000  -0.0000000   0.0000000
  129   0.0000001   0.0000000   0.0000000  -0.0000001  -0.0000000   0.0000000
  130   0.0000002   0.0000000   0.0000001   0.0000002   0.0000000  -0.0000001
  131   0.0000001  -0.0000000   0.0000001   0.0000001  -0.0000000  -0.0000001
  132   0.0000006   0.0000000  -0.0000000  -0.0000006  -0.0000000  -0.0000000
  133  -0.0000000   0.0000000   0.0000000  -0.0000000   0.0000000  -0.0000000
  134   0.0000000   0.0000000   0.0000000   0.0000000   0.0000000  -0.0000000
  135   0.0000000   0.0000000  -0.0000000  -0.0000000  -0.0000000  -0.0000000
  136  -0.0000001   0.0000000   0.0000000  -0.0000001   0.0000000  -0.0000000
  137   0.0000000  -0.0000000  -0.0000001   0.0000000  -0.0000000   0.0000001
  138  -0.0000004  -0.0000000   0.0000001   0.0000004   0.0000000   0.0000001
           25          26          27          28          29          30
    1   0.0000040  -0.0000000  -0.0000000  -0.0000093  -0.0000043  -0.0000033
    2  -0.0000044  -0.0000010   0.0000000   0.0000083   0.0000009   0.0000029
    3   0.0000000  -0.0000000  -0.0001808  -0.0000150  -0.0000097  -0.0000006
    4  -0.0004592  -0.0000441  -0.0000937  -0.0000854   0.0000375  -0.0000219
    5   0.0001375  -0.0000096  -0.0000624   0.0000386  -0.0000252   0.0000076
    6   0.0000099  -0.0000113  -0.0001503   0.0000020  -0.0000073   0.0000047
    7  -0.0004593  -0.0000441   0.0000944  -0.0002608   0.0000827  -0.0000609
    8   0.0001375  -0.0000096   0.0000622   0.0000882  -0.0000456   0.0000246
    9  -0.0000099   0.0000113  -0.0001503  -0.0000439  -0.0000008  -0.0000055
   10   0.0017578  -0.0000368  -0.0000013   0.0003807  -0.0002037   0.0001046
   11  -0.0012795   0.0007884   0.0000008  -0.0002064   0.0001124  -0.0000595
   12  -0.0000016   0.0000012   0.0089505  -0.0004943   0.0007364  -0.0000815
   13  -0.0000014   0.0000048   0.0001671   0.0000653   0.0000592   0.0000291
   14   0.0000066   0.0000001  -0.0000120  -0.0000140   0.0000042  -0.0000122
   15   0.0000030   0.0000039   0.0000554   0.0000362   0.0000160   0.0000013
   16  -0.0000013   0.0000048  -0.0001671  -0.0000118   0.0000151  -0.0000014
   17   0.0000066   0.0000001   0.0000120   0.0000013  -0.0000058   0.0000020
   18  -0.0000030  -0.0000039   0.0000554   0.0000068  -0.0000026  -0.0000046
   19  -0.0000047   0.0000084  -0.0000563   0.0000038  -0.0000002   0.0000013
   20  -0.0000020   0.0000014   0.0000150  -0.0000015   0.0000011  -0.0000005
   21   0.0000058  -0.0000027  -0.0000599   0.0000021  -0.0000009   0.0000003
   22  -0.0000047   0.0000085   0.0000563  -0.0000188   0.0000149  -0.0000055
   23  -0.0000020   0.0000014  -0.0000150   0.0000090  -0.0000049   0.0000038
   24  -0.0000058   0.0000027  -0.0000599   0.0000086  -0.0000028   0.0000033
   25  -0.0003855   0.0002593   0.0000003  -0.0000014   0.0000008  -0.0000008
   26   0.0002593  -0.0004108  -0.0000003   0.0000000   0.0000002   0.0000003
   27   0.0000003  -0.0000003  -0.0027778  -0.0000028  -0.0000040   0.0000059
   28  -0.0000014   0.0000000  -0.0000028  -0.0000516   0.0000194  -0.0000150
[...]
 ----------------------------------------------------------------
    1      C       1.1856830473    -1.9872964388    -0.0000381700
    2      C      -0.9543994809    -1.2298920317    -1.2645195104
    3      C      -0.9543318571    -1.2298381769     1.2645022133
    4      C      -1.8029130639    -1.4652321655     0.0000195767
    5      C       0.3101335603    -2.0952181072     1.2686922100
    6      C       0.3100884771    -2.0952420184    -1.2687356828
    7      H      -0.6961141698    -0.1791752297    -1.3492781765
    8      H      -0.6960091697    -0.1791243293     1.3491889074
    9      H      -2.0833434382    -2.5179786245     0.0000513142
   10      H       0.0009924138    -3.1353419640     1.3616915305
   11      H       0.0009658884    -3.1353732656    -1.3617115406
   12      H      -1.5472898589    -1.4645474008    -2.1443640079
   13      H      -1.5471820635    -1.4644305063     2.1443904523
   14      H       0.9091462216    -1.8735317808     2.1468115864
   15      H       0.9090646050    -1.8735552866    -2.1468801277
   16      C      -3.0843267456    -0.6648645841     0.0000302675
   17      C      -5.5232330839     0.8179436504     0.0000227448
   18      C      -3.0855338133     0.7782795732     0.0000462227
   19      C      -4.3721285832    -1.3255175648     0.0000078584
   20      C      -5.5381439853    -0.6348857735     0.0000044571
   21      C      -4.2318343277     1.5000235130     0.0000431989
   22      H      -2.1443666611     1.2987144846     0.0000616294
   23      H      -4.3940925327    -2.4015241678    -0.0000054937
   24      H      -6.4832007867    -1.1479489828    -0.0000111595
   25      H      -4.2281334379     2.5720290709     0.0000558483
   26      C      -6.7465057111     1.5756969775     0.0000206616
   27      H      -7.6745779718     1.0009195305     0.0000052637
   28      O      -6.7769844978     2.7871698963     0.0000348906
   29      H       1.8159892561    -2.8708678956    -0.0000427247
   30      C       2.1649350686    -0.8173120535    -0.0000529557
   31      H       3.8491291029    -2.0982715478     0.0000968379
   32      C       3.5039759207    -1.0781796214     0.0000299194
   33      C       2.6702432553     1.5588111340    -0.0001453860
   34      C       4.4822842365    -0.0491543237     0.0000316356
   35      C       1.7613226833     0.5504041615    -0.0001430227
   36      C       4.0632531717     1.2929631799    -0.0000573021
   37      C       5.8741209645    -0.3331997348     0.0001195101
   38      H       0.7199067478     0.8019298321    -0.0002124017
   39      H       4.7118744145     3.3503999532    -0.0001253518
   40      H       2.3357086823     2.5821218192    -0.0002155583
   41      C       6.7867985390     0.6727770962     0.0001184057
   42      H       6.1963834533    -1.3602069825     0.0001874893
   43      H       7.8388715592     0.4483274443     0.0001856421
   44      C       6.3629287097     2.0242650410     0.0000286895
   45      H       7.0973903778     2.8101075052     0.0000286797
   46      C       5.0383769095     2.3246842883    -0.0000568356
 ----------------------------------------------------------------
 Nuclear Repulsion Energy =  1823.2890136034 hartrees
 There are       84 alpha and       84 beta electrons
 Requested basis set is 6-31G(d,p)
 There are 162 shells and 470 basis functions

Total QAlloc Memory Limit  20000 MB
Mega-Array Size      4888 MB
MEM_STATIC part      5000 MB
 A cutoff of  1.0D-12 yielded   7336 shell pairs
 There are     62524 function pairs
 Smallest overlap matrix eigenvalue = 2.61E-04

  Scale SEOQF with 1.000000e-02/1.000000e-01/1.000000e-01

 Standard Electronic Orientation quadrupole field applied
 Nucleus-field energy     =     0.0000000334 hartrees
 Guess MOs from SCF MO coefficient file
Reading MOs from coefficient file
Reading MOs from coefficient file
 A restricted Hartree-Fock SCF calculation will be
 performed using Pulay DIIS extrapolation
 SCF converges when DIIS error is below 1.0E-10
 ---------------------------------------
  Cycle       Energy         DIIS Error
 ---------------------------------------
    1    -958.6943569010      4.76E-09
    2    -958.6943569080      7.43E-10
    3    -958.6943569079      2.07E-10
    4    -958.6943569079      1.20E-10
    5    -958.6943569079      1.74E-11 Convergence criterion met
 ---------------------------------------
 SCF time:  CPU 138.99 s  wall 139.06 s
 SCF   energy in the final basis set = -958.6943569079
 Total energy in the final basis set = -958.6943569079
 Direct RCIS calculation will be performed
 Triplet excitation energies requested
 CIS energy converged when residual is below 10e-10
 ---------------------------------------------------
 Iter    Rts Conv    Rts Left    Ttl Dev     Max Dev
 ---------------------------------------------------
   1         0           2      0.000137    0.000073
   2         0           2      0.000766    0.000627
   3         0           2      0.000573    0.000311
   4         0           2      0.000391    0.000264
   5         0           2      0.000325    0.000237
   6         0           2      0.000120    0.000082
   7         0           2      0.000060    0.000046
   8         0           2      0.000022    0.000017
   9         0           2      0.000009    0.000007
  10         0           2      0.000005    0.000004
  11         0           2      0.000003    0.000003
  12         0           2      0.000001    0.000001
  13         0           2      0.000000    0.000000
  14         0           2      0.000000    0.000000
  15         0           2      0.000000    0.000000
  16         0           2      0.000000    0.000000
  17         0           2      0.000000    0.000000
  18         0           2      0.000000    0.000000
  19         0           2      0.000000    0.000000
  20         1           1      0.000000    0.000000
  21         1           1      0.000000    0.000000
  22         2           0      0.000000    0.000000    Roots Converged
 ---------------------------------------------------
 
 
 ---------------------------------------------------
               CIS Excitation Energies              
 ---------------------------------------------------

 Excited state   1: excitation energy (eV) =    2.5573
    Total energy for state   1:   -958.600378822329
    Multiplicity: Triplet 
    Trans. Mom.:  0.0000 X   0.0000 Y   0.0000 Z
    Strength   :  0.0000
    D( 81) --> V(  4) amplitude = -0.2882
    D( 82) --> V(  1) amplitude = -0.8960

 Excited state   2: excitation energy (eV) =    2.7698
    Total energy for state   2:   -958.592567723039
    Multiplicity: Triplet 
    Trans. Mom.:  0.0000 X   0.0000 Y   0.0000 Z
    Strength   :  0.0000
    D( 80) --> V(  5) amplitude = -0.3232
    D( 83) --> V(  3) amplitude =  0.3680
    D( 84) --> V(  2) amplitude = -0.8067
 
 ---------------------------------------------------
  Timing summary (seconds)
  CPU time       1896.79s
  System time       0.00s
  Wall time      1900.64s


 Entering the ER Localization Code for CIS excited states. 

NOTE: THIS HAS BEEN ONLY PARTIALLY TESTED FOR THE CASE THAT WE HAVE UNRESTRICTED ORBITALS.
INITIAL CENTER1 LOCATIONS: state 0  Occ x -8.754 y  0.691 z  0.000 Virt x -8.692 y  0.652 z  0.000
INITIAL CENTER1 LOCATIONS: state 1  Occ x  8.070 y  1.129 z -0.000 Virt x  8.042 y  1.160 z -0.000
INITIAL CENTER2 LOCATIONS: state 0  Occ x 83.712 y  6.210 z  2.245 Virt x 83.821 y  6.670 z  2.077
INITIAL CENTER2 LOCATIONS: state 1  Occ x 76.249 y  7.546 z  2.274 Virt x 76.877 y  7.712 z  2.121
INITIAL STANDARD DEVIATIONS: state 0  Occ x  2.661 y  2.394 z  1.498 Virt x  2.877 y  2.499 z  1.441
INITIAL STANDARD DEVIATIONS: state 1  Occ x  3.335 y  2.504 z  1.508 Virt x  3.493 y  2.523 z  1.456
INITIAL : state 0 sum of square of distances to other adiabatic states Occ 283.239865 Virt 280.272146
INITIAL : state 1 sum of square of distances to other adiabatic states Occ 283.239865 Virt 280.272146



Calling Random Orthogonal Matrix...
RandomSeed = 25
location random matrix in checkantisymmetry: max_diff = 0.000000e+00
location random matrix in checkunitary: max_diff = 0.000000e+00
 initially ruedvalue =    1.02147814303819     
showmatrix initial R-Matrix(0,0) =   0.5517654359
showmatrix initial R-Matrix(1,0) =   0.0031050817
showmatrix initial R-Matrix(0,1) =  -0.0038433250
showmatrix initial R-Matrix(1,1) =   0.4697127071
JacSwp  rnd     1 max_diff -9.999000e+03 ruedval     1.0216030942
In RUED_JACOBI SWEEPS for DIABATIC STATES, ending in round     1  because max_diff = 6.505213e-19
showmatrix final R-Matrix(0,0) =   0.5518345531
showmatrix final R-Matrix(1,0) =  -0.0000002390
showmatrix final R-Matrix(0,1) =  -0.0000002390
showmatrix final R-Matrix(1,1) =   0.4697685412
showmatrix final adiabatic -> diabatic RotMatrix(0,0) =   0.9999999793
showmatrix final adiabatic -> diabatic RotMatrix(1,0) =  -0.0002032627
showmatrix final adiabatic -> diabatic RotMatrix(0,1) =   0.0002032627
showmatrix final adiabatic -> diabatic RotMatrix(1,1) =   0.9999999793
location RotMatrix in boys_diabatic_nogs in checkunitary: max_diff = 0.000000e+00
showing H in adiabatic representation: NO coupling elements!!!
showmatrix adiabatH(0,0) =   0.0939780856
showmatrix adiabatH(1,0) =   0.0000000000
showmatrix adiabatH(0,1) =   0.0000000000
showmatrix adiabatH(1,1) =   0.1017891849
getting H in diabatic representation: WITH coupling elements!!!
showmatrix diabatH(0,0) =   0.0939780859
showmatrix diabatH(1,0) =  -0.0000015877
showmatrix diabatH(0,1) =  -0.0000015877
showmatrix diabatH(1,1) =   0.1017891845
FINAL CENTER LOCATIONS Spin Occ : state 0 x -8.754 y  0.691 z  0.000  Virt x -8.692 y  0.652 z  0.000
FINAL CENTER LOCATIONS Spin Occ : state 1 x  8.070 y  1.129 z -0.000  Virt x  8.042 y  1.160 z -0.000
FINAL CENTER2 LOCATIONS: state 0  Occ x 83.712 y  6.210 z  2.245 Virt x 83.821 y  6.670 z  2.077
FINAL CENTER2 LOCATIONS: state 1  Occ x 76.249 y  7.546 z  2.274 Virt x 76.877 y  7.712 z  2.121
FINAL STANDARD DEVIATIONS: state 0  Occ x  2.661 y  2.394 z  1.498 Virt x  2.877 y  2.499 z  1.441
FINAL STANDARD DEVIATIONS: state 1  Occ x  3.335 y  2.504 z  1.508 Virt x  3.493 y  2.523 z  1.456
FINAL: state 0 sum of square of distances to other Centers Occ 283.239911 Virt 280.272190 
FINAL: state 1 sum of square of distances to other Centers Occ 283.239911 Virt 280.272190 



Calculating ER second derivative! Everything should be negative. If so, we are done.
location hessian --max_diff from checksymmetry = 0.000000e+00
eval of hessian: count 0 eval -3.092149
 STSman time:  CPU 0.00 s  wall 0.00 s

 Analysis of SCF Wavefunction
 
 --------------------------------------------------------------
                    Orbital Energies (a.u.)
 --------------------------------------------------------------
 
 Alpha MOs
 -- Occupied --
-20.548 -11.322 -11.273 -11.260 -11.253 -11.248 -11.244 -11.244
-11.242 -11.240 -11.240 -11.238 -11.237 -11.235 -11.233 -11.233
-11.232 -11.232 -11.231 -11.229 -11.228 -11.228 -11.226 -11.226
 -1.378  -1.180  -1.162  -1.135  -1.108  -1.063  -1.046  -1.035
 -1.016  -1.014  -0.994  -0.974  -0.901  -0.852  -0.847  -0.847
 -0.835  -0.814  -0.808  -0.779  -0.756  -0.706  -0.703  -0.695
 -0.673  -0.663  -0.648  -0.640  -0.623  -0.615  -0.615  -0.609
 -0.602  -0.599  -0.585  -0.581  -0.576  -0.567  -0.556  -0.539
 -0.533  -0.532  -0.527  -0.521  -0.503  -0.497  -0.496  -0.482
 -0.476  -0.471  -0.450  -0.450  -0.438  -0.431  -0.417  -0.380
 -0.356  -0.317  -0.313  -0.288
 -- Virtual --
  0.070   0.099   0.128   0.140   0.187   0.207   0.213   0.219
  0.241   0.246   0.258   0.268   0.274   0.276   0.283   0.283
  0.295   0.304   0.312   0.321   0.321   0.327   0.332   0.339
  0.340   0.345   0.357   0.359   0.374   0.379   0.393   0.399
  0.408   0.413   0.418   0.419   0.435   0.459   0.467   0.467
  0.476   0.481   0.498   0.499   0.504   0.517   0.519   0.535
  0.542   0.561   0.563   0.594   0.655   0.689   0.711   0.712
  0.718   0.722   0.725   0.731   0.735   0.741   0.743   0.743
  0.752   0.756   0.763   0.764   0.784   0.790   0.792   0.799
  0.800   0.803   0.810   0.815   0.820   0.822   0.828   0.842
  0.844   0.857   0.862   0.865   0.870   0.876   0.897   0.899
  0.910   0.911   0.923   0.924   0.928   0.946   0.948   0.962
  0.971   0.994   1.001   1.016   1.033   1.038   1.044   1.047
  1.055   1.064   1.069   1.073   1.074   1.079   1.080   1.086
  1.086   1.091   1.102   1.104   1.112   1.118   1.118   1.122
  1.131   1.133   1.145   1.148   1.168   1.175   1.183   1.198
  1.206   1.213   1.219   1.220   1.225   1.227   1.227   1.237
  1.239   1.258   1.279   1.283   1.302   1.307   1.318   1.332
  1.351   1.355   1.372   1.381   1.401   1.402   1.407   1.414
  1.441   1.464   1.480   1.485   1.500   1.502   1.506   1.540
  1.548   1.548   1.584   1.591   1.603   1.619   1.632   1.634
  1.649   1.657   1.659   1.670   1.672   1.686   1.691   1.704
  1.707   1.708   1.726   1.728   1.732   1.763   1.767   1.795
  1.799   1.816   1.838   1.857   1.885   1.938   1.949   1.968
  2.015   2.021   2.033   2.036   2.050   2.053   2.055   2.092
  2.095   2.096   2.108   2.111   2.124   2.130   2.137   2.143
  2.159   2.164   2.172   2.187   2.192   2.198   2.202   2.206
  2.211   2.223   2.228   2.236   2.241   2.245   2.269   2.272
  2.275   2.277   2.290   2.295   2.301   2.309   2.328   2.337
  2.351   2.373   2.380   2.399   2.399   2.406   2.436   2.446
  2.453   2.460   2.462   2.482   2.487   2.493   2.502   2.523
  2.530   2.532   2.546   2.552   2.567   2.579   2.594   2.602
  2.623   2.631   2.641   2.646   2.650   2.660   2.662   2.670
  2.683   2.698   2.707   2.710   2.713   2.716   2.734   2.745
  2.750   2.759   2.774   2.779   2.786   2.795   2.804   2.809
  2.820   2.829   2.838   2.852   2.854   2.864   2.866   2.886
  2.892   2.906   2.909   2.915   2.929   2.931   2.943   2.947
  2.951   2.957   2.983   2.990   2.996   3.012   3.015   3.030
  3.035   3.058   3.064   3.070   3.085   3.095   3.114   3.116
  3.148   3.157   3.170   3.171   3.181   3.189   3.202   3.211
  3.220   3.229   3.252   3.265   3.286   3.294   3.306   3.344
  3.370   3.383   3.403   3.428   3.440   3.481   3.521   3.531
  3.557   3.628   3.630   3.638   3.645   3.660   3.673   3.687
  3.723   3.726   3.739   3.753   3.798   3.813   3.815   3.858
  3.885   3.889   3.891   3.902   3.914   3.924   3.979   4.170
  4.202   4.316   4.363   4.525   4.545   4.570   4.573   4.584
  4.604   4.615   4.625   4.718   4.750   4.788   4.830   4.852
  4.856   4.903   4.941   4.967   5.094   5.167   5.199   5.220
  5.276   5.385
 --------------------------------------------------------------
 
          Ground-State Mulliken Net Atomic Charges

     Atom                 Charge (a.u.)
  ----------------------------------------
      1 C                    -0.162690
      2 C                    -0.206071
      3 C                    -0.206073
      4 C                    -0.162759
      5 C                    -0.211687
      6 C                    -0.211690
      7 H                     0.113970
      8 H                     0.113971
      9 H                     0.123908
     10 H                     0.112312
     11 H                     0.112313
     12 H                     0.126971
     13 H                     0.126972
     14 H                     0.130409
     15 H                     0.130410
     16 C                     0.027999
     17 C                    -0.179926
     18 C                    -0.154039
     19 C                    -0.174107
     20 C                    -0.108919
     21 C                    -0.087108
     22 H                     0.150468
     23 H                     0.151271
     24 H                     0.165378
     25 H                     0.197942
     26 C                     0.396409
     27 H                     0.107255
     28 O                    -0.539148
     29 H                     0.129975
     30 C                     0.021374
     31 H                     0.146525
     32 C                    -0.164774
     33 C                    -0.127053
     34 C                    -0.024590
     35 C                    -0.152237
     36 C                    -0.040639
     37 C                    -0.127499
     38 H                     0.137095
     39 H                     0.152640
     40 H                     0.153766
     41 C                    -0.157453
     42 H                     0.151185
     43 H                     0.151015
     44 C                    -0.160086
     45 H                     0.151115
     46 C                    -0.124099
  ----------------------------------------
  Sum of atomic charges =     0.000000

 -----------------------------------------------------------------
                    Cartesian Multipole Moments
 -----------------------------------------------------------------
    Charge (ESU x 10^10)
                 0.0000
    Dipole Moment (Debye)
         X       2.2654      Y      -3.9626      Z       0.0000
       Tot       4.5644
    Quadrupole Moments (Debye-Ang)
        XX    -149.5166     XY      25.7085     YY    -140.8278
        XZ       0.0010     YZ      -0.0007     ZZ    -148.7844
    Octopole Moments (Debye-Ang^2)
       XXX     147.0084    XXY    -168.5911    XYY      89.9416
       YYY     -23.4279    XXZ       0.0033    XYZ      -0.0016
       YYZ      -0.0014    XZZ     -23.6997    YZZ      -2.2113
       ZZZ       0.0001
    Hexadecapole Moments (Debye-Ang^3)
      XXXX  -14521.4332   XXXY    1226.7793   XXYY   -3230.4234
      XYYY     279.7965   YYYY   -2138.8199   XXXZ       0.0646
      XXYZ      -0.0148   XYYZ       0.0009   YYYZ      -0.0059
      XXZZ   -2758.6676   XYZZ     -49.6706   YYZZ    -451.2668
      XZZZ      -0.0014   YZZZ       0.0011   ZZZZ    -466.9172
 -----------------------------------------------------------------
Archival summary:
1\1\fermi.chem.uh.edu\SP\HF\6-31G**\12322\xunmo\FriFeb2821:14:262014FriFeb2821:14:262014\0\\#,HF,6-31G**,\\0,1\C\C,1,1.36421\H,2,1.0769,1,119.718\C,2,1.41985,1,122.529,3,-180,0\C,4,1.40601,2,119.108,1,0,0\C,5,1.41815,4,118.144,2,0,0\H,6,1.0766,5,118.908,4,180,0\C,6,1.35758,5,121.225,4,0,0\H,8,1.07136,6,118.451,5,180,0\C,5,1.41962,4,119.276,2,180,0\H,10,1.07643,5,118.958,4,-180,0\C,10,1.35819,5,120.606,4,0,0\H,12,1.07563,10,120.285,5,180,0\C,12,1.4164,10,120.192,5,0,0\H,14,1.07575,12,119.456,10,180,0\C,14,1.3583,12,120.371,10,0,0\H,16,1.07638,14,120.363,12,-180,0\C,1,1.52571,2,118.905,3,0,0\H,18,1.08535,1,104.569,2,0.0046753,0\C,18,1.54529,1,114.659,2,-115.385,0\H,20,1.08584,18,109.703,1,40.4292,0\H,20,1.08907,18,107.316,1,155.642,0\C,20,1.53224,18,115.207,1,-84.3381,0\H,23,1.08531,20,110.496,18,70.168,0\H,23,1.0866,20,109.032,18,-173.71,0\C,23,1.54091,20,111.742,18,-52.7403,0\H,26,1.08946,23,106.819,20,-60.3013,0\C,26,1.51083,23,112.715,20,-177.626,0\C,28,1.44314,26,122.037,23,-62.8235,0\H,29,1.07548,28,118.893,26,0,0\C,29,1.35459,28,122.244,26,-180,0\H,31,1.07201,29,121.998,28,-180,0\C,28,1.44738,26,120.853,23,117.177,0\H,33,1.07623,28,118.328,26,0,0\C,33,1.3552,28,122.204,26,180,0\H,35,1.07534,33,120.865,28,180,0\C,35,1.45291,33,120.05,28,0,0\C,37,1.43895,35,121.188,33,180,0\H,38,1.09164,37,116.453,35,0,0\O,38,1.21186,37,123.217,35,180,0\C,26,1.54092,23,110.295,20,55.4244,0\H,41,1.08531,26,110.059,23,67.7337,0\H,41,1.0866,26,109.333,23,-176.218,0\C,41,1.53225,26,111.742,23,-55.4229,0\H,44,1.08584,41,110.008,26,177.346,0\H,44,1.08907,41,107.781,26,-67.0262,0\\HF=-958.694357\\@

 Total job time:  2285.78s(wall), 2280.59s(cpu) 
 Fri Feb 28 21:14:26 2014

        *************************************************************
        *                                                           *
        *  Thank you very much for using Q-Chem.  Have a nice day.  *
        *                                                           *
        *************************************************************


0 sent ACK to 0 
now end server 0 ... 
cleanup process ... done
