
Running Job 1 of 4 INP/d26ae
qchem INP/d26ae_36366.0 /home/qchem_scratch/qchem36366/ 1
/home/QCHEM/bin/mpi/mpirun_qchem -machinefile /home/QCHEM/bin/mpi/machines -np 1 /home/QCHEM/exe/qcprog.exe INP/d26ae_36366.0 /home/qchem_scratch/qchem36366/

Process 0 of 1 is on fermi.chem.uh.edu - thread support 0
initial socket setup ...start
initial socket setup ...done 
now start server 0 ... 
                  Welcome to Q-Chem
     A Quantum Leap Into The Future Of Chemistry

 Y. Shao, L. Fusti-Molnar, Y. Jung, J. Kussmann, C. Ochsenfeld, S. T. Brown, 
 A. T. B. Gilbert, L. V. Slipchenko, S. V. Levchenko, D. P. O'Neill, 
 R. A. DiStasio Jr., R. C. Lochan, T. Wang, G. J. O. Beran, N. A. Besley, 
 J. M. Herbert, C. Y. Lin, T. Van Voorhis, S. H. Chien, A. Sodt, R. P. Steele, 
 V. A. Rassolov, P. E. Maslen, P. P. Korambath, R. D. Adamson, B. Austin, 
 J. Baker, E. F. C. Byrd, H. Dachsel, R. J. Doerksen, A. Dreuw, B. D. Dunietz, 
 A. D. Dutoi, T. R. Furlani, S. R. Gwaltney, A. Heyden, S. Hirata, C.-P. Hsu, 
 G. Kedziora, R. Z. Khaliullin, P. Klunzinger, A. M. Lee, M. S. Lee, W. Liang, 
 I. Lotan, N. Nair, B. Peters, E. I. Proynov, P. A. Pieniazek, Y. M. Rhee, 
 J. Ritchie, E. Rosta, C. D. Sherrill, A. C. Simmonett, J. E. Subotnik, 
 H. L. Woodcock III, W. Zhang, A. T. Bell, A. K. Chakraborty, D. M. Chipman, 
 F. J. Keil, A. Warshel, W. J. Hehre, H. F. Schaefer III, J. Kong, 
 A. I. Krylov, P. M. W. Gill, M. Head-Gordon

 Additional authors for Version 3.1: 
 Z. Gan, Y. Zhao, N. E. Schultz, D. Truhlar, E. Epifanovsky, M. Oana

 Additional authors for Version 3.2: 
 R. Baer, B. R. Brooks, D. Casanova, J.-D. Chai, C.-L. Cheng, C. Cramer, 
 D. Crittenden, A. Ghysels, G. Hawkins, E. G. Hohenstein, C. Kelley, 
 W. Kurlancheek, D. Liotard, E. Livshits, P. Manohar, A. Marenich, 
 D. Neuhauser, R. Olson, M. A. Rohrdanz, K. S. Thanthiriwatte, A. J. W. Thom, 
 V. Vanovschi, C. F. Williams, Q. Wu, Z.-Q. You

 Additional authors for Version 4.0: 
 A. Aspuru-Guzik, Y. Bernard, C. Chang, J. Deng, A. Dreuw, M. Diedenhofen, 
 R. G. Edgar, D. Ghosh, W. A. Goddard III, M. Goldey, L. D. Jacobson, 
 M. Gordon, B. Kaduk, I. Kaliman, K. Khistyaev, R. King, A. Klamt, 
 D. Kosenkov, T. Kus, D. Lambrecht, A. Landau, A. W. Lange, K. Lawler, F. Liu, 
 J. Liu, R. Olivares-Amaya, S. P. Mao, J. Parkhill, N. Russ, M. Schmidt, 
 N. Shenvi, D. Small, Y. C. Su, E. Sundstrom, L. Vogt, O. Vydrov, M. Watson, 
 M. Wormit, X. Xu, S. Yeganeh, I. Y. Zhang, D. Zuev

 Additional authors for Version 4.1: 
 X. Feng, M. W. D. Hanson-Heine, P. Horn, H. Ji, A. Laurent, R. Peverati, 
 N. Mardirossian, N. Sergueev, S. Sharada, P. Zimmerman

 Q-Chem, Version 4.1, Q-Chem, Inc., Pittsburgh, PA (2013).

 Parts of Q-Chem use Armadillo 3.6.2 (Piazza del Duomo).
 http://arma.sourceforge.net/

 Intel X86 Linux Version 4.1.2

 Q-chem begins on Fri Feb 28 08:30:07 2014  

Host: 
0

     Scratch files written to /home/qchem_scratch/qchem36366//
 Feb414 28838_zgan 2267   
 Parallel job on  1  processors
Processing $rem in /home/QCHEM/config/preferences.
 MEM_TOTAL  2000 
Finally everything over in PARseQInput

--------------------------------------------------------------
User input:
--------------------------------------------------------------
$comment
C1,3ea
$end
$molecule
0 1
C      -1.2139807576     0.7983638915     1.7532285894
C       0.0516059952     1.6477199945     1.8926181697
C       1.0757216493     1.3324812873     0.7976434211
C       0.4499840323     1.4976404877    -0.5956514297
C      -0.8090692568     0.6362792193    -0.7361692127
C      -1.8450661117     0.9462258955     0.3582299461
H      -0.2129122473     2.7037643817     1.8431184347
H       0.4942636879     1.4874599847     2.8734352803
H      -0.9657201948    -0.2456896568     1.9341036427
H      -1.9391987216     1.0791629302     2.5117967542
H       0.1512137256     2.5433958686    -0.7021971543
H      -1.2580512265     0.7950245849    -1.7133621039
H      -0.5286088762    -0.4149306408    -0.6922661740
H      -2.1275478351     1.9913167438     0.2442616807
H       1.3477670370     0.2816907298     0.8969826418
C       2.3410239694     2.1911269226     0.9404124370
C       3.3967820539     1.9648536384    -0.1575475400
C       2.7176303662     2.0919013942    -1.5411827446
C       1.4849465791     1.1984024923    -1.6827113074
H       4.1064013245     2.7912079668    -0.0840994624
H       2.0450669309     3.2377114398     0.8940115466
H       2.7808671523     2.0525269968     1.9246427355
H       2.4167899433     3.1298338609    -1.6733961996
H       3.4240218035     1.8772268409    -2.3360229777
H       1.0423857974     1.3438700888    -2.6652906204
H       1.7794925164     0.1515857812    -1.6267509492
C       4.2251810881     0.6977249723    -0.0228581088
C       4.0845062522    -0.2736731084     1.0363368535
C       5.3230081680     0.4867570813    -0.9525205109
C       4.8835865144    -1.3664016727     1.1243617417
H       3.3286978594    -0.1321548466     1.7840321064
C       6.1376127766    -0.5896677594    -0.8904909116
H       5.4971982909     1.2271457700    -1.7129857104
C       5.9352797796    -1.5924332422     0.1439146565
H       4.7537114100    -2.0762325396     1.9216488142
H       6.9440394358    -0.7314223968    -1.5828342287
C       6.7708026517    -2.7638084839     0.2010319674
H       6.5632901841    -3.4692142917     1.0081910225
O       7.6631291977    -2.9828325547    -0.5879519301
C      -4.3143481715     0.7289067733    -0.0198447163
C      -5.5160500693    -0.0162768389    -0.1646035828
C      -3.1145979770     0.1268628992     0.2059897885
C      -6.7675007303     0.6115704144    -0.4001631716
C      -5.4665659311    -1.4190340483    -0.0721104988
C      -3.0813263607    -1.2950967907     0.2971028859
C      -7.9003328042    -0.1267093129    -0.5345295040
H      -6.8064202822     1.6849476701    -0.4711400494
C      -6.6648804464    -2.1652259543    -0.2164150228
C      -4.2091453665    -2.0361855206     0.1636807374
H      -2.1444087722    -1.7923996136     0.4746000821
C      -7.8491595223    -1.5382347654    -0.4412988719
H      -8.8438501126     0.3583315971    -0.7128689733
H      -6.6217882778    -3.2384665996    -0.1449875234
H      -4.1617987299    -3.1093207672     0.2355711177
H      -8.7536679265    -2.1102038060    -0.5497488395
H      -4.3701577016     1.8020731636    -0.0935538146
$end


$rem
MEM_TOTAL	20000
MEM_STATIC	5000
JOBTYPE    freq 
SYMMETRY   FALSE
EXCHANGE     	HF
CORRELATION  	none  (built-in)
BASIS       	6-31g** 
cis_state_deriv   1
cis_n_roots       3
cis_singlets      false
cis_triplets      true
max_scf_cycles=100
max_cis_cycles=100
$end

--------------------------------------------------------------
 ----------------------------------------------------------------
             Standard Nuclear Orientation (Angstroms)
    I     Atom           X                Y                Z
 ----------------------------------------------------------------
    1      C      -1.2139807576     0.7983638915     1.7532285894
    2      C       0.0516059952     1.6477199945     1.8926181697
    3      C       1.0757216493     1.3324812873     0.7976434211
    4      C       0.4499840323     1.4976404877    -0.5956514297
    5      C      -0.8090692568     0.6362792193    -0.7361692127
    6      C      -1.8450661117     0.9462258955     0.3582299461
    7      H      -0.2129122473     2.7037643817     1.8431184347
    8      H       0.4942636879     1.4874599847     2.8734352803
    9      H      -0.9657201948    -0.2456896568     1.9341036427
   10      H      -1.9391987216     1.0791629302     2.5117967542
   11      H       0.1512137256     2.5433958686    -0.7021971543
   12      H      -1.2580512265     0.7950245849    -1.7133621039
   13      H      -0.5286088762    -0.4149306408    -0.6922661740
   14      H      -2.1275478351     1.9913167438     0.2442616807
   15      H       1.3477670370     0.2816907298     0.8969826418
   16      C       2.3410239694     2.1911269226     0.9404124370
   17      C       3.3967820539     1.9648536384    -0.1575475400
   18      C       2.7176303662     2.0919013942    -1.5411827446
   19      C       1.4849465791     1.1984024923    -1.6827113074
   20      H       4.1064013245     2.7912079668    -0.0840994624
   21      H       2.0450669309     3.2377114398     0.8940115466
   22      H       2.7808671523     2.0525269968     1.9246427355
   23      H       2.4167899433     3.1298338609    -1.6733961996
   24      H       3.4240218035     1.8772268409    -2.3360229777
   25      H       1.0423857974     1.3438700888    -2.6652906204
   26      H       1.7794925164     0.1515857812    -1.6267509492
   27      C       4.2251810881     0.6977249723    -0.0228581088
   28      C       4.0845062522    -0.2736731084     1.0363368535
   29      C       5.3230081680     0.4867570813    -0.9525205109
   30      C       4.8835865144    -1.3664016727     1.1243617417
   31      H       3.3286978594    -0.1321548466     1.7840321064
   32      C       6.1376127766    -0.5896677594    -0.8904909116
   33      H       5.4971982909     1.2271457700    -1.7129857104
   34      C       5.9352797796    -1.5924332422     0.1439146565
   35      H       4.7537114100    -2.0762325396     1.9216488142
   36      H       6.9440394358    -0.7314223968    -1.5828342287
   37      C       6.7708026517    -2.7638084839     0.2010319674
   38      H       6.5632901841    -3.4692142917     1.0081910225
   39      O       7.6631291977    -2.9828325547    -0.5879519301
   40      C      -4.3143481715     0.7289067733    -0.0198447163
   41      C      -5.5160500693    -0.0162768389    -0.1646035828
   42      C      -3.1145979770     0.1268628992     0.2059897885
   43      C      -6.7675007303     0.6115704144    -0.4001631716
   44      C      -5.4665659311    -1.4190340483    -0.0721104988
   45      C      -3.0813263607    -1.2950967907     0.2971028859
   46      C      -7.9003328042    -0.1267093129    -0.5345295040
   47      H      -6.8064202822     1.6849476701    -0.4711400494
   48      C      -6.6648804464    -2.1652259543    -0.2164150228
   49      C      -4.2091453665    -2.0361855206     0.1636807374
   50      H      -2.1444087722    -1.7923996136     0.4746000821
   51      C      -7.8491595223    -1.5382347654    -0.4412988719
   52      H      -8.8438501126     0.3583315971    -0.7128689733
   53      H      -6.6217882778    -3.2384665996    -0.1449875234
   54      H      -4.1617987299    -3.1093207672     0.2355711177
   55      H      -8.7536679265    -2.1102038060    -0.5497488395
   56      H      -4.3701577016     1.8020731636    -0.0935538146
 ----------------------------------------------------------------
 Molecular Point Group                 C1    NOp =  1
 Largest Abelian Subgroup              C1    NOp =  1
 Nuclear Repulsion Energy =  2355.6588632778 hartrees
 There are       99 alpha and       99 beta electrons
 Requested basis set is 6-31G(d,p)
 There are 196 shells and 560 basis functions

Total QAlloc Memory Limit  20000 MB
Mega-Array Size      4888 MB
MEM_STATIC part      5000 MB
 A cutoff of  1.0D-11 yielded   9249 shell pairs
 There are     75396 function pairs
 Smallest overlap matrix eigenvalue = 2.65E-04
 Guess from superposition of atomic densities
 Warning:  Energy on first SCF cycle will be non-variational
 A restricted Hartree-Fock SCF calculation will be
 performed using Pulay DIIS extrapolation
 SCF converges when DIIS error is below 1.0E-08
 ---------------------------------------
  Cycle       Energy         DIIS Error
 ---------------------------------------
    1   -1125.9939785827      3.35E-02
    2   -1113.3220530361      2.58E-03
    3   -1113.6208164786      1.34E-03
    4   -1113.6739617035      5.40E-04
    5   -1113.6854126881      6.09E-05
    6   -1113.6856592507      2.97E-05
    7   -1113.6857289413      1.35E-05
    8   -1113.6857481656      6.33E-06
    9   -1113.6857529780      2.01E-06
   10   -1113.6857535418      9.11E-07
   11   -1113.6857536641      4.43E-07
   12   -1113.6857537084      1.91E-07
   13   -1113.6857537153      7.44E-08
   14   -1113.6857537164      2.23E-08
   15   -1113.6857537167      8.03E-09 Convergence criterion met
 ---------------------------------------
 SCF time:  CPU 706.79 s  wall 712.11 s
 SCF   energy in the final basis set = -1113.6857537167
 Total energy in the final basis set = -1113.6857537167
 Direct RCIS calculation will be performed
 Triplet excitation energies requested
 CIS energy converged when residual is below 10e- 6
 ---------------------------------------------------
 Iter    Rts Conv    Rts Left    Ttl Dev     Max Dev
 ---------------------------------------------------
   1         0           3      0.000430    0.000365
   2         0           3      0.000153    0.000133
   3         0           3      0.001145    0.000617
   4         0           3      0.000415    0.000221
   5         0           3      0.000420    0.000311
   6         0           3      0.000283    0.000156
   7         1           2      0.000124    0.000063
   8         1           2      0.000086    0.000055
   9         1           2      0.000056    0.000045
  10         1           2      0.000048    0.000042
  11         1           2      0.000051    0.000049
  12         2           1      0.000080    0.000078
  13         2           1      0.000086    0.000085
  14         2           1      0.000106    0.000104
  15         2           1      0.000073    0.000071
  16         2           1      0.000066    0.000064
  17         2           1      0.000129    0.000127
  18         2           1      0.000094    0.000092
  19         2           1      0.000055    0.000054
  20         2           1      0.000035    0.000034
  21         2           1      0.000017    0.000016
  22         2           1      0.000007    0.000006
  23         2           1      0.000003    0.000002
  24         2           1      0.000003    0.000002
  25         2           1      0.000005    0.000004
  26         2           1      0.000006    0.000005
  27         2           1      0.000005    0.000004
  28         2           1      0.000005    0.000004
  29         2           1      0.000003    0.000002
  30         3           0      0.000002    0.000001    Roots Converged
 ---------------------------------------------------
 
 
 ---------------------------------------------------
               CIS Excitation Energies              
 ---------------------------------------------------

 Excited state   1: excitation energy (eV) =    2.5273
    Total energy for state   1:  -1113.592875776252
    Multiplicity: Triplet 
    Trans. Mom.:  0.0000 X   0.0000 Y   0.0000 Z
    Strength   :  0.0000
    D( 96) --> V(  4) amplitude =  0.2789
    D( 97) --> V(  1) amplitude =  0.8992

 Excited state   2: excitation energy (eV) =    2.7871
    Total energy for state   2:  -1113.583331000614
    Multiplicity: Triplet 
    Trans. Mom.:  0.0000 X   0.0000 Y   0.0000 Z
    Strength   :  0.0000
    D( 95) --> V(  5) amplitude = -0.3248
    D( 98) --> V(  3) amplitude =  0.3755
    D( 99) --> V(  2) amplitude = -0.8036

 Excited state   3: excitation energy (eV) =    4.0986
    Total energy for state   3:  -1113.535131227903
    Multiplicity: Triplet 
    Trans. Mom.:  0.0000 X   0.0000 Y   0.0000 Z
    Strength   :  0.0000
    D( 93) --> V(  1) amplitude = -0.7832
    D( 93) --> V(  6) amplitude = -0.3925
    D( 93) --> V(  8) amplitude = -0.2815
 
 ---------------------------------------------------
 Calculating Relaxed Density
 ---------------------------------------------------
 Iter    Rts Conv    Rts Left    Ttl Dev     Max Dev
 ---------------------------------------------------
   1         0           3      0.000371    0.000183
   2         0           3      0.000120    0.000054
   3         0           3      0.000065    0.000031
   4         0           3      0.000019    0.000009
   5         0           3      0.000006    0.000003
   6         3           0      0.000000    0.000000    Roots Converged
 ---------------------------------------------------
  Timing summary (seconds)
  CPU time       4389.31s
  System time       0.00s
  Wall time      4402.49s
 STSman time:  CPU 0.00 s  wall 0.00 s

 Analysis of SCF Wavefunction
 
 --------------------------------------------------------------
                    Orbital Energies (a.u.)
 --------------------------------------------------------------
 
 Alpha MOs
 -- Occupied --
-20.548 -11.322 -11.275 -11.260 -11.251 -11.247 -11.246 -11.243
-11.241 -11.237 -11.236 -11.236 -11.232 -11.232 -11.231 -11.231
-11.230 -11.229 -11.229 -11.228 -11.227 -11.226 -11.226 -11.225
-11.221 -11.221 -11.220 -11.219  -1.378  -1.177  -1.164  -1.146
 -1.119  -1.091  -1.052  -1.046  -1.039  -1.033  -1.008  -0.992
 -0.983  -0.965  -0.901  -0.866  -0.850  -0.845  -0.828  -0.819
 -0.813  -0.809  -0.783  -0.767  -0.758  -0.701  -0.700  -0.689
 -0.672  -0.663  -0.648  -0.643  -0.634  -0.622  -0.619  -0.614
 -0.606  -0.600  -0.599  -0.591  -0.589  -0.579  -0.576  -0.568
 -0.557  -0.546  -0.540  -0.532  -0.526  -0.525  -0.513  -0.506
 -0.500  -0.493  -0.491  -0.483  -0.480  -0.476  -0.470  -0.465
 -0.460  -0.452  -0.436  -0.417  -0.416  -0.411  -0.378  -0.355
 -0.316  -0.310  -0.286
 -- Virtual --
  0.069   0.103   0.131   0.139   0.190   0.207   0.220   0.225
  0.235   0.240   0.246   0.256   0.260   0.263   0.270   0.281
  0.283   0.289   0.297   0.302   0.309   0.314   0.317   0.320
  0.322   0.326   0.330   0.334   0.341   0.342   0.351   0.354
  0.357   0.363   0.372   0.379   0.387   0.395   0.403   0.410
  0.416   0.423   0.425   0.434   0.440   0.442   0.452   0.459
  0.468   0.476   0.483   0.486   0.496   0.496   0.502   0.518
  0.526   0.533   0.539   0.549   0.574   0.587   0.600   0.669
  0.674   0.703   0.705   0.712   0.718   0.725   0.726   0.730
  0.734   0.744   0.744   0.746   0.752   0.754   0.767   0.769
  0.778   0.786   0.789   0.794   0.798   0.801   0.807   0.810
  0.815   0.821   0.825   0.830   0.838   0.843   0.847   0.854
  0.863   0.868   0.872   0.879   0.889   0.896   0.904   0.912
  0.919   0.931   0.936   0.940   0.941   0.951   0.955   0.973
  0.978   0.980   0.984   0.996   1.002   1.014   1.028   1.032
  1.042   1.045   1.059   1.062   1.064   1.065   1.077   1.078
  1.079   1.084   1.087   1.089   1.091   1.101   1.105   1.106
  1.111   1.116   1.122   1.125   1.133   1.133   1.140   1.146
  1.149   1.158   1.170   1.175   1.184   1.187   1.190   1.194
  1.196   1.206   1.215   1.217   1.223   1.225   1.230   1.239
  1.240   1.249   1.257   1.258   1.269   1.282   1.286   1.306
  1.313   1.320   1.329   1.347   1.356   1.365   1.381   1.391
  1.402   1.410   1.420   1.431   1.438   1.459   1.468   1.472
  1.496   1.503   1.508   1.517   1.525   1.533   1.552   1.567
  1.574   1.599   1.604   1.621   1.627   1.641   1.647   1.655
  1.660   1.664   1.665   1.676   1.680   1.691   1.700   1.703
  1.719   1.728   1.730   1.760   1.769   1.774   1.787   1.789
  1.805   1.809   1.820   1.831   1.844   1.861   1.903   1.909
  1.947   1.965   1.999   2.006   2.022   2.039   2.043   2.046
  2.052   2.057   2.065   2.071   2.079   2.098   2.112   2.115
  2.122   2.130   2.141   2.144   2.148   2.150   2.160   2.171
  2.175   2.184   2.188   2.195   2.205   2.208   2.209   2.217
  2.228   2.228   2.235   2.236   2.241   2.249   2.261   2.264
  2.272   2.278   2.280   2.293   2.301   2.303   2.307   2.320
  2.336   2.342   2.348   2.357   2.367   2.385   2.390   2.397
  2.410   2.415   2.426   2.430   2.442   2.451   2.463   2.465
  2.466   2.475   2.498   2.508   2.511   2.520   2.529   2.536
  2.547   2.551   2.564   2.576   2.589   2.591   2.598   2.609
  2.611   2.630   2.634   2.636   2.650   2.663   2.670   2.673
  2.677   2.687   2.697   2.704   2.712   2.718   2.720   2.730
  2.735   2.746   2.749   2.759   2.765   2.768   2.776   2.778
  2.784   2.790   2.804   2.810   2.826   2.831   2.835   2.847
  2.854   2.879   2.880   2.889   2.895   2.896   2.911   2.917
  2.921   2.928   2.932   2.943   2.946   2.950   2.952   2.960
  2.969   2.973   2.986   2.996   3.002   3.017   3.030   3.039
  3.039   3.053   3.064   3.065   3.079   3.084   3.087   3.109
  3.117   3.121   3.142   3.153   3.163   3.167   3.179   3.192
  3.197   3.200   3.211   3.221   3.226   3.235   3.241   3.253
  3.260   3.278   3.294   3.297   3.323   3.331   3.337   3.360
  3.369   3.375   3.397   3.408   3.426   3.442   3.489   3.534
  3.535   3.556   3.604   3.631   3.633   3.642   3.654   3.659
  3.671   3.697   3.713   3.717   3.726   3.733   3.741   3.773
  3.793   3.804   3.811   3.819   3.866   3.878   3.889   3.891
  3.905   3.923   3.929   3.931   3.971   3.992   4.171   4.193
  4.317   4.365   4.524   4.547   4.573   4.575   4.587   4.592
  4.616   4.645   4.716   4.742   4.793   4.814   4.843   4.853
  4.871   4.882   4.945   4.951   4.982   5.088   5.152   5.183
  5.237   5.272   5.291   5.307   5.384
 --------------------------------------------------------------
 
          Ground-State Mulliken Net Atomic Charges

     Atom                 Charge (a.u.)
  ----------------------------------------
      1 C                    -0.200761
      2 C                    -0.208496
      3 C                    -0.124472
      4 C                    -0.126264
      5 C                    -0.184851
      6 C                    -0.159176
      7 H                     0.107178
      8 H                     0.112138
      9 H                     0.106376
     10 H                     0.124208
     11 H                     0.103719
     12 H                     0.122799
     13 H                     0.106316
     14 H                     0.119526
     15 H                     0.109631
     16 C                    -0.213777
     17 C                    -0.154727
     18 C                    -0.214553
     19 C                    -0.205431
     20 H                     0.144949
     21 H                     0.116705
     22 H                     0.119032
     23 H                     0.115323
     24 H                     0.121061
     25 H                     0.117298
     26 H                     0.117383
     27 C                     0.026187
     28 C                    -0.168510
     29 C                    -0.161979
     30 C                    -0.116053
     31 H                     0.153611
     32 C                    -0.084516
     33 H                     0.152041
     34 C                    -0.180576
     35 H                     0.164158
     36 H                     0.196781
     37 C                     0.397065
     38 H                     0.106326
     39 O                    -0.538755
     40 C                    -0.160279
     41 C                    -0.026774
     42 C                     0.010688
     43 C                    -0.127630
     44 C                    -0.041287
     45 C                    -0.149159
     46 C                    -0.157897
     47 H                     0.150135
     48 C                    -0.125351
     49 C                    -0.125713
     50 H                     0.147161
     51 C                    -0.160348
     52 H                     0.149910
     53 H                     0.151253
     54 H                     0.152194
     55 H                     0.149874
     56 H                     0.146308
  ----------------------------------------
  Sum of atomic charges =     0.000000

 -----------------------------------------------------------------
                    Cartesian Multipole Moments
 -----------------------------------------------------------------
    Charge (ESU x 10^10)
                 0.0000
    Dipole Moment (Debye)
         X      -3.2019      Y       2.5997      Z       1.4886
       Tot       4.3848
    Quadrupole Moments (Debye-Ang)
        XX    -203.7315     XY      19.0596     YY    -161.9447
        XZ      10.6210     YZ      -8.9919     ZZ    -168.6641
    Octopole Moments (Debye-Ang^2)
       XXX    -470.9728    XXY     158.7614    XYY     -73.5745
       YYY       0.7919    XXZ      36.3746    XYZ     -49.6323
       YYZ      18.0622    XZZ      53.0340    YZZ       1.1730
       ZZZ       1.2639
    Hexadecapole Moments (Debye-Ang^3)
      XXXX  -24450.9658   XXXY    1463.3419   XXYY   -4362.2764
      XYYY     183.2353   YYYY   -2521.6826   XXXZ     641.8418
      XXYZ    -358.4882   XYYZ     134.1665   YYYZ     -67.0396
      XXZZ   -3978.4845   XYZZ     -59.6819   YYZZ    -615.9425
      XZZZ     -42.2703   YZZZ     -12.1351   ZZZZ   -1065.9025
 -----------------------------------------------------------------
 Calculating MO derivatives via CPSCF
   1         3         168      0.155223    0.016496
   2         3         168      0.031377    0.004309
   3         3         168      0.006102    0.000986
   4        23         148      0.000863    0.000153
   5       159          12      0.000050    0.000018
   6       169           2      0.000004    0.000002
   7       171           0      0.000000    0.000000    Roots Converged
 Calculating CIS amplitude derivatives via CPCIS
 CIS relaxed dipole moment
            1
    1   0.1774116
    2  -0.1584369
    3  -0.0109695
	Magnitude:	 0.238 au	 0.605 Debye
 CIS Excitation Energy is    0.0928779404
 Gradient of the CIS Excitation Energy
            1           2           3           4           5           6
    1   0.0000294   0.0000818  -0.0001997  -0.0001275   0.0000280   0.0000058
    2  -0.0000315   0.0001780  -0.0006693   0.0002031  -0.0000683   0.0000310
    3  -0.0000396   0.0000101  -0.0000034   0.0000903  -0.0000352   0.0000155
            7           8           9          10          11          12
    1  -0.0000485   0.0000059   0.0000039   0.0000241  -0.0000599  -0.0000022
    2   0.0000341  -0.0000057   0.0000193   0.0000124   0.0000298   0.0000053
    3   0.0000297  -0.0000267  -0.0000029  -0.0000124  -0.0000471   0.0000051
           13          14          15          16          17          18
    1   0.0000084  -0.0000035  -0.0000450  -0.0002651  -0.0032233   0.0004190
    2   0.0000264   0.0000029   0.0005074  -0.0003730   0.0040798  -0.0009257
    3  -0.0000015   0.0000008  -0.0000303   0.0008003  -0.0000229  -0.0010716
           19          20          21          22          23          24
    1  -0.0002197  -0.0000485   0.0001752   0.0000489   0.0001372  -0.0001222
    2  -0.0002401  -0.0028232   0.0000020  -0.0000608  -0.0002443   0.0000512
    3   0.0001963   0.0003084  -0.0002837  -0.0003095   0.0006318   0.0004707
           25          26          27          28          29          30
    1   0.0001706   0.0000184   0.0369782  -0.0153482  -0.0454064   0.0588294
    2   0.0001010   0.0000778  -0.0380963   0.0503632   0.0258466  -0.0265090
    3   0.0000322  -0.0000583   0.0067227  -0.0309197   0.0226478  -0.0435044
           31          32          33          34          35          36
    1  -0.0006855   0.0006035  -0.0009285  -0.0444727  -0.0007105   0.0003260
    2   0.0007328  -0.0525850   0.0004726   0.0574108  -0.0008218  -0.0004717
    3  -0.0006023   0.0415603  -0.0000852   0.0042535   0.0003377  -0.0009160
           37          38          39          40          41          42
    1   0.0332831  -0.0001552  -0.0191284   0.0000176  -0.0000099  -0.0000166
    2  -0.0160071  -0.0011350   0.0008848   0.0000155  -0.0000039  -0.0000355
    3  -0.0207202   0.0009767   0.0196163   0.0000002   0.0000010  -0.0000183
           43          44          45          46          47          48
    1   0.0000027   0.0000059   0.0000255   0.0000013  -0.0000026  -0.0000022
    2   0.0000083   0.0000093   0.0000153   0.0000021  -0.0000001  -0.0000117
    3  -0.0000004   0.0000003   0.0000043  -0.0000003   0.0000002   0.0000006
           49          50          51          52          53          54
    1  -0.0000069   0.0000005   0.0000039   0.0000033  -0.0000004   0.0000032
    2  -0.0000061  -0.0000100   0.0000011  -0.0000014   0.0000031   0.0000042
    3   0.0000001  -0.0000008   0.0000007   0.0000007  -0.0000006  -0.0000009
           55          56
    1   0.0000038  -0.0000052
    2   0.0000020   0.0000033
    3   0.0000004  -0.0000004
gradient:-0.000028
gradient:0.000034
gradient:0.000038
gradient:-0.000082
gradient:-0.000180
gradient:-0.000014
gradient:0.000207
gradient:0.000666
gradient:0.000009
gradient:0.000127
gradient:-0.000199
gradient:-0.000092
gradient:-0.000026
gradient:0.000070
gradient:0.000036
gradient:-0.000002
gradient:-0.000033
gradient:-0.000014
gradient:0.000047
gradient:-0.000035
gradient:-0.000029
gradient:-0.000007
gradient:0.000007
gradient:0.000026
gradient:-0.000004
gradient:-0.000019
gradient:0.000002
gradient:-0.000025
gradient:-0.000012
gradient:0.000012
gradient:0.000058
gradient:-0.000028
gradient:0.000047
gradient:0.000000
gradient:-0.000005
gradient:-0.000005
gradient:-0.000009
gradient:-0.000027
gradient:0.000002
gradient:0.000004
gradient:-0.000004
gradient:-0.000001
gradient:0.000044
gradient:-0.000507
gradient:0.000032
gradient:0.000269
gradient:0.000364
gradient:-0.000810
gradient:0.003212
gradient:-0.004044
gradient:0.000011
gradient:-0.000420
gradient:0.000921
gradient:0.001089
gradient:0.000224
gradient:0.000235
gradient:-0.000194
gradient:0.000043
gradient:0.002826
gradient:-0.000308
gradient:-0.000176
gradient:-0.000001
gradient:0.000283
gradient:-0.000051
gradient:0.000063
gradient:0.000308
gradient:-0.000136
gradient:0.000242
gradient:-0.000633
gradient:0.000122
gradient:-0.000048
gradient:-0.000472
gradient:-0.000174
gradient:-0.000098
gradient:-0.000037
gradient:-0.000020
gradient:-0.000078
gradient:0.000057
gradient:-0.036958
gradient:0.038026
gradient:-0.006688
gradient:0.015341
gradient:-0.050315
gradient:0.030874
gradient:0.045402
gradient:-0.025864
gradient:-0.022633
gradient:-0.058791
gradient:0.026487
gradient:0.043484
gradient:0.000686
gradient:-0.000740
gradient:0.000613
gradient:-0.000616
gradient:0.052595
gradient:-0.041550
gradient:0.000934
gradient:-0.000481
gradient:0.000090
gradient:0.044386
gradient:-0.057308
gradient:-0.004255
gradient:0.000709
gradient:0.000818
gradient:-0.000329
gradient:-0.000312
gradient:0.000472
gradient:0.000904
gradient:-0.033268
gradient:0.015960
gradient:0.020751
gradient:0.000145
gradient:0.001130
gradient:-0.000963
gradient:0.019168
gradient:-0.000896
gradient:-0.019657
gradient:-0.000017
gradient:-0.000015
gradient:0.000000
gradient:0.000010
gradient:0.000005
gradient:-0.000001
gradient:0.000022
gradient:0.000033
gradient:0.000020
gradient:-0.000003
gradient:-0.000008
gradient:0.000000
gradient:-0.000007
gradient:-0.000010
gradient:-0.000000
gradient:-0.000022
gradient:-0.000010
gradient:-0.000004
gradient:-0.000002
gradient:-0.000003
gradient:0.000000
gradient:0.000002
gradient:0.000000
gradient:-0.000000
gradient:0.000002
gradient:0.000012
gradient:-0.000001
gradient:0.000005
gradient:0.000005
gradient:-0.000000
gradient:0.000000
gradient:0.000010
gradient:0.000001
gradient:-0.000005
gradient:0.000000
gradient:-0.000001
gradient:-0.000003
gradient:0.000001
gradient:-0.000001
gradient:-0.000000
gradient:-0.000004
gradient:0.000001
gradient:-0.000003
gradient:-0.000006
gradient:0.000001
gradient:-0.000004
gradient:-0.000002
gradient:-0.000000
gradient:0.000005
gradient:-0.000003
gradient:0.000000
gradient:0.177853
gradient:-0.158925
gradient:-0.010806
   1        78          93      0.014926    0.002441
   2       107          64      0.002760    0.000381
   3       121          50      0.000560    0.000061
   4       141          30      0.000116    0.000013
   5       165           6      0.000009    0.000002
   6       171           0      0.000000    0.000000    Roots Converged
 CPCIS time:  CPU 14708.26 s  wall 14747.89 s
 transition dipole derivative
            1           2           3
    1   0.0010065   0.0002952  -0.0015469
    2  -0.0022240   0.0021205   0.0007838
    3  -0.0010375   0.0016462  -0.0000867
    4   0.0025270   0.0002210  -0.0027975
    5   0.0047961   0.0015777  -0.0078531
    6   0.0009166  -0.0057223   0.0035400
    7   0.0004238   0.0010801   0.0005130
    8  -0.0165935  -0.0133542   0.0315984
    9  -0.0025642   0.0060789  -0.0007656
   10   0.0003537   0.0015963  -0.0010689
   11   0.0012961   0.0017880  -0.0037537
   12   0.0050231   0.0031230  -0.0085028
   13   0.0007468   0.0008756  -0.0013544
   14  -0.0027378   0.0018513   0.0018443
   15  -0.0024786  -0.0006837   0.0033246
   16   0.0002098   0.0011404  -0.0011371
   17   0.0015413  -0.0011996  -0.0006874
   18   0.0010365  -0.0001808  -0.0011096
   19  -0.0012287  -0.0021724   0.0034223
   20   0.0012693   0.0015117  -0.0026775
   21   0.0004421   0.0013962  -0.0018948
   22   0.0000892   0.0002401  -0.0003401
   23  -0.0004625  -0.0004261   0.0008892
   24  -0.0015768  -0.0001524   0.0021152
   25   0.0001267   0.0005303  -0.0005949
   26   0.0011725  -0.0004128  -0.0009615
   27   0.0000003  -0.0004101   0.0003471
   28   0.0009046  -0.0023339   0.0009177
   29   0.0004687  -0.0003455  -0.0002483
   30  -0.0005645   0.0007891  -0.0000078
   31  -0.0004886  -0.0021574   0.0019877
   32   0.0014740   0.0015162  -0.0021696
   33  -0.0017526  -0.0014594   0.0039054
   34  -0.0003514  -0.0015454   0.0017285
   35   0.0002303  -0.0002648  -0.0000579
   36  -0.0000990  -0.0012291   0.0011696
   37   0.0002347   0.0005647  -0.0005466
   38   0.0011985  -0.0000454  -0.0010851
   39   0.0001352   0.0005009  -0.0007890
   40  -0.0002174  -0.0000804   0.0002927
   41   0.0002910  -0.0000124  -0.0002793
   42  -0.0001948   0.0000868   0.0001662
   43  -0.0029182   0.0004669  -0.0002298
   44   0.0125529   0.0114117  -0.0242498
   45  -0.0010655  -0.0003844   0.0013465
   46  -0.0009551   0.0081357  -0.0111693
   47  -0.0027380  -0.0132746   0.0134178
   48   0.0152721  -0.0039506  -0.0155359
   49   0.1724554  -0.0165042   0.1214090
   50  -0.0987584   0.3574962   0.0164047
   51   0.1549699  -0.0557962   0.1339208
   52  -0.0308070   0.0012983  -0.0299025
   53  -0.0145557  -0.0368670  -0.0031247
   54  -0.0774019   0.0694555  -0.0818919
   55  -0.0073517   0.0042872  -0.0022168
   56  -0.0082884  -0.0032906   0.0105470
   57  -0.0012161  -0.0107176   0.0028405
   58   0.0014934  -0.0601325  -0.0455623
   59   0.0058260  -0.0935420   0.0091992
   60  -0.0279036   0.0140172  -0.0247679
   61   0.0022154  -0.0050318  -0.0000006
   62   0.0000508   0.0059229  -0.0049273
   63  -0.0066142  -0.0038769   0.0111102
   64   0.0022198   0.0026551  -0.0071039
   65  -0.0009266  -0.0056722   0.0072244
   66  -0.0114580  -0.0061706   0.0190013
   67   0.0141969  -0.0007159  -0.0062794
   68  -0.0029952  -0.0091951   0.0098949
   69   0.0086537  -0.0017241   0.0071129
   70  -0.0021380   0.0037196  -0.0031435
   71   0.0060177  -0.0028319  -0.0001026
   72  -0.0167184  -0.0071946   0.0279493
   73   0.0041662  -0.0046248  -0.0006253
   74   0.0046146  -0.0006124  -0.0025726
   75   0.0009971  -0.0032910   0.0024449
   76   0.0028530  -0.0010129   0.0080331
   77   0.0011562   0.0043865  -0.0014586
   78   0.0060254   0.0037649  -0.0018376
   79  -1.7053295  -0.1699513   0.9099383
   80  -0.2972556  -1.5665670   0.9066694
   81   1.0635135   0.7968171  -2.8013290
   82   1.0216880  -0.7426528   0.2280169
   83  -0.2567006   2.4419047  -1.3738787
   84  -0.2213848  -0.8373686   1.6300365
   85   2.0300367  -0.8086747  -0.7461870
   86  -1.0755794   1.5569410   0.3164327
   87  -0.5339996   0.0332439   1.1466679
   88  -1.8490574   0.8747639   0.5064415
   89   0.9397191  -1.7162031  -0.0874937
   90   0.4806509  -0.0497865  -1.1623003
   91  -0.0566180  -0.0259509  -0.0021059
   92  -0.0172460  -0.0162346  -0.0375732
   93  -0.0321169  -0.0332781  -0.0129757
   94  -1.2523678   0.6988559   0.0470282
   95   0.7043140  -2.3082317   0.7064142
   96   0.0561453   0.6741604  -1.2650204
   97  -0.0219312  -0.0161784  -0.0430720
   98  -0.0265178  -0.0288459  -0.0141991
   99  -0.0325264  -0.0075675  -0.0387849
  100   1.9221132  -0.1566397  -1.0073532
  101  -0.5115799   1.8471130  -0.2259768
  102  -0.7248326  -0.5723018   2.1691530
  103   0.0510623   0.0333814   0.0151137
  104   0.0426859   0.0286620   0.0081253
  105   0.0264037   0.0127731   0.0498007
  106   0.0484958   0.0180693   0.0156988
  107   0.0292602   0.0141834   0.0230137
  108   0.0088454   0.0129709   0.0599144
  109  -1.4433995   0.7586554   0.6412537
  110   0.7308577  -0.7169613  -0.4457305
  111   0.6365881  -0.4652969  -0.6138909
  112   0.0246970   0.0307043  -0.0056796
  113   0.0296996  -0.0064387   0.0077915
  114  -0.0027500   0.0065331   0.0427460
  115   1.0698410  -0.4240424  -0.5816548
  116  -0.1851512   0.2619107   0.1710371
  117  -0.7645978   0.4311061   0.7120373
  118   0.0006462  -0.0013302   0.0004742
  119   0.0005886  -0.0013588   0.0004840
  120  -0.0000997  -0.0001032   0.0002168
  121  -0.0004425   0.0007041  -0.0002113
  122  -0.0000392   0.0005096  -0.0003605
  123   0.0001023   0.0000244  -0.0001563
  124  -0.0008225   0.0020926  -0.0008499
  125  -0.0011862   0.0026396  -0.0008859
  126  -0.0010412   0.0004694   0.0007983
  127   0.0001986  -0.0002173   0.0000703
  128   0.0001402  -0.0008235   0.0005036
  129  -0.0000464   0.0000088   0.0000388
  130   0.0003465  -0.0005385   0.0001285
  131   0.0003617  -0.0008538   0.0003212
  132   0.0000730  -0.0000469  -0.0000350
  133   0.0012729  -0.0013984  -0.0002071
  134   0.0000879  -0.0012069   0.0009358
  135   0.0000629  -0.0001609   0.0001264
  136   0.0000382  -0.0002223   0.0001047
  137   0.0000398  -0.0002863   0.0001309
  138  -0.0000468  -0.0000234   0.0000902
  139  -0.0000719   0.0001605  -0.0000433
  140   0.0000463   0.0001029  -0.0001215
  141   0.0000420   0.0000287  -0.0000615
  142  -0.0000933   0.0002070  -0.0000687
  143  -0.0003392   0.0010329  -0.0004978
  144  -0.0000516  -0.0000494   0.0001053
  145  -0.0002659   0.0003226  -0.0000315
  146  -0.0002066   0.0006758  -0.0003259
  147  -0.0001288  -0.0000023   0.0001673
  148  -0.0000779   0.0000419   0.0000633
  149  -0.0003627   0.0010546  -0.0004854
  150   0.0001804  -0.0000569  -0.0002047
  151   0.0001002  -0.0005012   0.0002639
  152   0.0000439   0.0000699  -0.0000742
  153  -0.0000169  -0.0001009   0.0000787
  154   0.0000439  -0.0003038   0.0001988
  155  -0.0000186   0.0000960  -0.0000657
  156   0.0000400  -0.0000433  -0.0000138
  157   0.0000235   0.0000111  -0.0000399
  158   0.0001459  -0.0003141   0.0000969
  159   0.0000335   0.0000466  -0.0000841
  160   0.0002106  -0.0002144  -0.0000576
  161   0.0002895  -0.0004701   0.0000684
  162   0.0000730   0.0000352  -0.0001278
  163   0.0001015  -0.0003373   0.0001806
  164   0.0000406  -0.0001412   0.0000795
  165   0.0000399  -0.0000298  -0.0000133
  166  -0.0002052   0.0003887  -0.0000976
  167   0.0001859  -0.0001955  -0.0000296
  168   0.0000195   0.0000838  -0.0000849
mem use when entering cis_hess,0,625000000
mem use when entering PV,0,625000000
mem use when entering PT + WS,0,625000000
mem use when entering II^xy,0,625000000
mem use when entering PCM,0,625000000
mem use when entering E^xy,0,625000000
mem use when entering PF,0,625000000
mem use when entering ws,0,625000000
mem use when entering RPA_Hess_IIx,0,625000000
Nshell = 196 
s2Bra.ftnCode() = 360011 
 hess cis_hess_iirx
            1           2           3           4           5           6
    1  -0.0000368   0.0000246   0.0000186   0.0000172  -0.0000375  -0.0000151
    2   0.0000246  -0.0000181  -0.0000135  -0.0000066   0.0000332   0.0000101
    3   0.0000186  -0.0000135  -0.0000093  -0.0000077   0.0000230   0.0000154
    4   0.0000172  -0.0000066  -0.0000077  -0.0000929   0.0000508   0.0000398
    5  -0.0000375   0.0000332   0.0000230   0.0000508  -0.0002597  -0.0000688
    6  -0.0000151   0.0000101   0.0000154   0.0000398  -0.0000688  -0.0000963
    7  -0.0000007  -0.0000062  -0.0000058   0.0000228  -0.0002027  -0.0000777
    8  -0.0000356   0.0000191   0.0000162  -0.0001079   0.0005259   0.0001127
    9  -0.0000068   0.0000072   0.0000015   0.0000082  -0.0000052   0.0000785
   10   0.0000140  -0.0000146  -0.0000058  -0.0000041   0.0000386   0.0000067
   11  -0.0000088   0.0000090   0.0000049   0.0000285  -0.0000480   0.0000041
   12   0.0000037  -0.0000034  -0.0000016   0.0000216   0.0000042   0.0000049
   13   0.0000026  -0.0000008   0.0000002   0.0000016   0.0000024  -0.0000039
   14  -0.0000016   0.0000019   0.0000000   0.0000024  -0.0000058  -0.0000040
   15  -0.0000046   0.0000048   0.0000027  -0.0000068   0.0000022  -0.0000012
   16   0.0000037  -0.0000035  -0.0000028   0.0000006   0.0000055   0.0000025
   17  -0.0000048   0.0000023   0.0000027   0.0000018  -0.0000068  -0.0000012
   18   0.0000020  -0.0000019  -0.0000020   0.0000027   0.0000048   0.0000023
   19  -0.0000030   0.0000017   0.0000017   0.0000140  -0.0000044  -0.0000056
   20   0.0000019  -0.0000001  -0.0000011  -0.0000071   0.0000146   0.0000055
   21  -0.0000003   0.0000004  -0.0000014  -0.0000024  -0.0000016   0.0000095
   22   0.0000001  -0.0000002  -0.0000001   0.0000009  -0.0000012  -0.0000009
   23   0.0000000  -0.0000002  -0.0000003  -0.0000008   0.0000013   0.0000003
   24  -0.0000006   0.0000000  -0.0000001   0.0000001  -0.0000009   0.0000010
   25   0.0000078  -0.0000053  -0.0000044  -0.0000009   0.0000059   0.0000017
   26  -0.0000015  -0.0000001   0.0000008   0.0000011  -0.0000009  -0.0000009
   27  -0.0000057   0.0000036   0.0000026   0.0000009  -0.0000045  -0.0000017
   28  -0.0000001   0.0000005   0.0000003  -0.0000004  -0.0000010   0.0000000
   29  -0.0000021   0.0000025   0.0000013   0.0000004  -0.0000014  -0.0000006
   30  -0.0000005   0.0000005   0.0000003   0.0000005  -0.0000003  -0.0000001
   31   0.0000007  -0.0000003  -0.0000004   0.0000038   0.0000014  -0.0000017
   32  -0.0000000   0.0000009  -0.0000009   0.0000001  -0.0000031   0.0000059
   33  -0.0000015   0.0000006   0.0000009  -0.0000008   0.0000027  -0.0000083
   34   0.0000004  -0.0000002   0.0000000  -0.0000009   0.0000030   0.0000011
   35   0.0000001  -0.0000001  -0.0000000  -0.0000004   0.0000011   0.0000003
   36  -0.0000003   0.0000002   0.0000001   0.0000005  -0.0000019  -0.0000008
   37  -0.0000003  -0.0000001  -0.0000004   0.0000008  -0.0000020  -0.0000006
   38   0.0000000  -0.0000002   0.0000007  -0.0000007   0.0000006  -0.0000011
   39  -0.0000004   0.0000007   0.0000009  -0.0000002  -0.0000025  -0.0000015
   40   0.0000017  -0.0000015  -0.0000010   0.0000004   0.0000016   0.0000007
   41   0.0000012  -0.0000011  -0.0000009  -0.0000000   0.0000016   0.0000005
   42  -0.0000001   0.0000000   0.0000001  -0.0000000  -0.0000001  -0.0000000
   43   0.0000208  -0.0000114  -0.0000031   0.0000730  -0.0000509  -0.0000648
   44  -0.0000090   0.0000078   0.0000003  -0.0000018  -0.0000067   0.0000289
   45  -0.0000136   0.0000072   0.0000054  -0.0000210   0.0000310   0.0000216
   46   0.0000035  -0.0000211  -0.0000160  -0.0000714   0.0001630   0.0000345
   47   0.0001415  -0.0000994  -0.0000644   0.0000184   0.0000502  -0.0000203
   48   0.0000115  -0.0000298  -0.0000173  -0.0000318   0.0000806   0.0000044
   49  -0.0001117   0.0001445   0.0000814   0.0003161  -0.0008497  -0.0002016
   50  -0.0002982   0.0001864   0.0001435   0.0004956  -0.0023321  -0.0005791
   51  -0.0001289   0.0001448   0.0000880   0.0003168  -0.0011200  -0.0002712
   52   0.0000034  -0.0000081  -0.0000008   0.0000177  -0.0002406  -0.0000557
   53   0.0000079   0.0000104  -0.0000002  -0.0000521   0.0005158   0.0001597
   54  -0.0000003  -0.0000078  -0.0000003   0.0000191  -0.0001438  -0.0000626
   55  -0.0000258   0.0000285   0.0000132  -0.0000296   0.0001686   0.0000729
   56   0.0000203  -0.0000228  -0.0000105   0.0000253  -0.0002041  -0.0000751
   57  -0.0000191   0.0000198   0.0000086  -0.0000209   0.0000657   0.0000375
   58  -0.0000098   0.0000045   0.0000052   0.0000069  -0.0000703  -0.0000244
   59   0.0000127  -0.0000043  -0.0000046  -0.0000323   0.0002032   0.0000451
   60   0.0000034  -0.0000046  -0.0000024   0.0000113  -0.0000402  -0.0000098
   61  -0.0000033   0.0000024   0.0000019   0.0000040  -0.0000053   0.0000045
   62   0.0000001  -0.0000001   0.0000000  -0.0000015  -0.0000058   0.0000023
   63   0.0000010  -0.0000006  -0.0000004  -0.0000002   0.0000024   0.0000001
   64  -0.0000105   0.0000111   0.0000095   0.0000292  -0.0000820  -0.0000229
   65   0.0000062  -0.0000056  -0.0000052  -0.0000259   0.0000479   0.0000144
   66  -0.0000000  -0.0000000   0.0000001   0.0000001   0.0000029   0.0000017
   67  -0.0000003  -0.0000000   0.0000001   0.0000031  -0.0000006  -0.0000016
   68  -0.0000008   0.0000008   0.0000003  -0.0000004  -0.0000057  -0.0000029
   69   0.0000011  -0.0000010  -0.0000005   0.0000025  -0.0000011   0.0000015
   70   0.0000007   0.0000006  -0.0000002   0.0000040   0.0000008  -0.0000031
   71  -0.0000074   0.0000027   0.0000024  -0.0000124   0.0000046   0.0000002
   72   0.0000030  -0.0000012  -0.0000013   0.0000034  -0.0000069   0.0000010
   73   0.0000005  -0.0000001  -0.0000005  -0.0000011   0.0000128   0.0000031
   74   0.0000003   0.0000004  -0.0000007  -0.0000012   0.0000245   0.0000070
   75   0.0000001  -0.0000000  -0.0000001  -0.0000003   0.0000026   0.0000009
   76   0.0000153  -0.0000142  -0.0000081   0.0000146  -0.0000267  -0.0000148
   77  -0.0000006   0.0000008   0.0000002  -0.0000031   0.0000107   0.0000037
   78   0.0000092  -0.0000088  -0.0000053   0.0000092  -0.0000183  -0.0000072
   79   0.0000506  -0.0001018  -0.0000447  -0.0001772   0.0008007   0.0002136
   80   0.0001086  -0.0000605  -0.0000377  -0.0002437   0.0010085   0.0001583
   81   0.0000647  -0.0001056  -0.0000404  -0.0001666   0.0008803   0.0001895
   82   0.0001725  -0.0000906  -0.0000896  -0.0002325   0.0001614   0.0000556
   83   0.0001501  -0.0001028  -0.0000789  -0.0001622   0.0003758   0.0001061
   84   0.0001609  -0.0000499  -0.0000649  -0.0002458   0.0000763  -0.0000409
   85  -0.0001347   0.0001081   0.0000944   0.0001994  -0.0002502  -0.0001352
   86  -0.0001034   0.0000835   0.0000586   0.0001301  -0.0001404  -0.0000399
   87  -0.0001207   0.0000777   0.0000570   0.0001623  -0.0001635  -0.0000082
   88   0.0000372  -0.0000220  -0.0000205  -0.0000347   0.0003081   0.0000947
   89   0.0000224  -0.0000220  -0.0000282  -0.0000496   0.0000384   0.0001124
   90   0.0000281  -0.0000247  -0.0000240  -0.0000260   0.0001983   0.0000977
   91   0.0000154  -0.0000175  -0.0000134  -0.0000450   0.0001773   0.0000619
   92   0.0000137  -0.0000157  -0.0000117  -0.0000427   0.0001580   0.0000522
   93   0.0000153  -0.0000176  -0.0000131  -0.0000448   0.0001687   0.0000562
   94  -0.0000235   0.0000003   0.0000001  -0.0000464   0.0000740   0.0000569
   95   0.0000040  -0.0000259  -0.0000056   0.0000002   0.0001379   0.0000232
   96  -0.0000150   0.0000002   0.0000010  -0.0000456   0.0001098   0.0000281
   97   0.0000027  -0.0000010  -0.0000021   0.0000082   0.0000260   0.0000018
   98   0.0000022  -0.0000008  -0.0000018   0.0000069   0.0000208   0.0000011
   99   0.0000026  -0.0000011  -0.0000019   0.0000077   0.0000261   0.0000018
  100  -0.0000147  -0.0000053  -0.0000063   0.0000142  -0.0001878  -0.0000032
  101  -0.0000125   0.0000372   0.0000291  -0.0000023  -0.0001939  -0.0001043
  102   0.0000066  -0.0000063   0.0000018   0.0000283  -0.0001109  -0.0000489
  103   0.0000095  -0.0000077  -0.0000046  -0.0000083   0.0000492   0.0000061
  104   0.0000082  -0.0000067  -0.0000040  -0.0000067   0.0000390   0.0000045
  105   0.0000079  -0.0000062  -0.0000038  -0.0000081   0.0000466   0.0000062
  106  -0.0000043   0.0000029   0.0000019   0.0000054  -0.0000001   0.0000006
  107  -0.0000035   0.0000022   0.0000015   0.0000046  -0.0000011   0.0000005
  108  -0.0000042   0.0000025   0.0000018   0.0000058  -0.0000028   0.0000002
  109   0.0000001   0.0000253   0.0000211  -0.0000239  -0.0000392  -0.0000485
  110   0.0000040  -0.0000211  -0.0000208  -0.0000015   0.0000139   0.0000521
  111   0.0000025  -0.0000117  -0.0000104  -0.0000039  -0.0000123   0.0000279
  112   0.0000007  -0.0000005  -0.0000000   0.0000002   0.0000025  -0.0000021
  113   0.0000006  -0.0000005  -0.0000001   0.0000001   0.0000024  -0.0000013
  114   0.0000008  -0.0000004  -0.0000000  -0.0000000   0.0000027  -0.0000021
  115  -0.0000006  -0.0000150  -0.0000119   0.0000121   0.0000012   0.0000259
  116  -0.0000035   0.0000069   0.0000053  -0.0000020  -0.0000157  -0.0000118
  117  -0.0000049   0.0000156   0.0000122  -0.0000074  -0.0000245  -0.0000273
  118   0.0000003  -0.0000003  -0.0000002  -0.0000001   0.0000001  -0.0000001
  119   0.0000001  -0.0000001  -0.0000001  -0.0000001  -0.0000000  -0.0000001
  120  -0.0000000  -0.0000001  -0.0000001  -0.0000001   0.0000001   0.0000000
  121   0.0000002  -0.0000001  -0.0000001  -0.0000001   0.0000001   0.0000001
  122   0.0000001  -0.0000001  -0.0000000  -0.0000000   0.0000001   0.0000000
  123  -0.0000000   0.0000000   0.0000000   0.0000000  -0.0000000  -0.0000000
  124  -0.0000016   0.0000017   0.0000011  -0.0000006  -0.0000042  -0.0000012
  125  -0.0000001   0.0000006   0.0000002  -0.0000008   0.0000012   0.0000004
  126  -0.0000001   0.0000001   0.0000001  -0.0000006  -0.0000007  -0.0000003
  127   0.0000000  -0.0000000  -0.0000000  -0.0000000   0.0000000   0.0000000
  128  -0.0000000   0.0000000   0.0000000   0.0000000  -0.0000000  -0.0000000
  129   0.0000000  -0.0000000  -0.0000000  -0.0000000   0.0000000   0.0000000
  130   0.0000000  -0.0000000  -0.0000000  -0.0000000   0.0000000   0.0000000
  131   0.0000000  -0.0000000  -0.0000000  -0.0000000   0.0000000   0.0000000
  132  -0.0000000   0.0000000   0.0000000   0.0000000  -0.0000000  -0.0000000
  133   0.0000005  -0.0000006  -0.0000004  -0.0000001   0.0000011   0.0000003
  134   0.0000002  -0.0000002  -0.0000002   0.0000000   0.0000004   0.0000001
  135  -0.0000002   0.0000001   0.0000001   0.0000001   0.0000000  -0.0000000
  136  -0.0000000   0.0000000   0.0000000   0.0000000  -0.0000000  -0.0000000
  137   0.0000000  -0.0000000  -0.0000000  -0.0000000   0.0000000  -0.0000000
  138  -0.0000000   0.0000000   0.0000000   0.0000000  -0.0000000  -0.0000000
  139   0.0000000  -0.0000000  -0.0000000   0.0000000   0.0000000   0.0000000
  140   0.0000000   0.0000000   0.0000000   0.0000000   0.0000000   0.0000000
  141  -0.0000000   0.0000000   0.0000000   0.0000000  -0.0000000  -0.0000000
  142   0.0000000  -0.0000000  -0.0000000  -0.0000000   0.0000000   0.0000000
  143  -0.0000000   0.0000000   0.0000000   0.0000000  -0.0000000   0.0000000
  144   0.0000000  -0.0000000  -0.0000000   0.0000000   0.0000000   0.0000000
  145   0.0000000  -0.0000000  -0.0000000  -0.0000000  -0.0000000   0.0000000
  146  -0.0000000  -0.0000000  -0.0000000  -0.0000000   0.0000000  -0.0000000
  147   0.0000000  -0.0000000  -0.0000000  -0.0000000   0.0000000   0.0000000
  148  -0.0000003   0.0000001   0.0000002   0.0000000  -0.0000003  -0.0000002
  149  -0.0000002  -0.0000000   0.0000000   0.0000000  -0.0000001  -0.0000000
  150   0.0000001  -0.0000001  -0.0000000   0.0000000   0.0000000   0.0000000
  151   0.0000000  -0.0000000  -0.0000000  -0.0000000   0.0000000  -0.0000000
  152   0.0000000  -0.0000000  -0.0000000  -0.0000000   0.0000000   0.0000000
  153   0.0000000  -0.0000000  -0.0000000  -0.0000000   0.0000000   0.0000000
  154   0.0000000  -0.0000000  -0.0000000  -0.0000000  -0.0000000  -0.0000000
  155  -0.0000000   0.0000000   0.0000000   0.0000000   0.0000000   0.0000000
  156   0.0000000  -0.0000000  -0.0000000   0.0000000   0.0000000  -0.0000000
  157   0.0000000  -0.0000000  -0.0000000  -0.0000000   0.0000000   0.0000000
  158   0.0000000  -0.0000000  -0.0000000  -0.0000000   0.0000000  -0.0000000
  159  -0.0000000   0.0000000   0.0000000   0.0000000  -0.0000000  -0.0000000
  160   0.0000000  -0.0000000   0.0000000  -0.0000000   0.0000000  -0.0000000
  161   0.0000000  -0.0000000  -0.0000000  -0.0000000   0.0000000  -0.0000000
  162  -0.0000000   0.0000000   0.0000000   0.0000000  -0.0000000  -0.0000000
  163   0.0000000  -0.0000000  -0.0000000  -0.0000000   0.0000000  -0.0000000
  164   0.0000000  -0.0000000  -0.0000000  -0.0000000   0.0000000  -0.0000000
  165   0.0000000  -0.0000000  -0.0000000   0.0000000   0.0000000  -0.0000000
  166   0.0000000  -0.0000000  -0.0000000   0.0000000   0.0000000   0.0000000
  167   0.0000000  -0.0000000   0.0000000  -0.0000000  -0.0000000  -0.0000000
  168  -0.0000000   0.0000000   0.0000000  -0.0000000  -0.0000000   0.0000000
            7           8           9          10          11          12
    1  -0.0000007  -0.0000356  -0.0000068   0.0000140  -0.0000088   0.0000037
    2  -0.0000062   0.0000191   0.0000072  -0.0000146   0.0000090  -0.0000034
    3  -0.0000058   0.0000162   0.0000015  -0.0000058   0.0000049  -0.0000016
    4   0.0000228  -0.0001079   0.0000082  -0.0000041   0.0000285   0.0000216
    5  -0.0002027   0.0005259  -0.0000052   0.0000386  -0.0000480   0.0000042
    6  -0.0000777   0.0001127   0.0000785   0.0000067   0.0000041   0.0000049
    7  -0.0064991   0.0048858   0.0024700   0.0006926  -0.0003025   0.0002488
    8   0.0048858  -0.0068207  -0.0009629  -0.0003163   0.0007878   0.0000753
    9   0.0024700  -0.0009629  -0.0015752  -0.0002541  -0.0001590  -0.0001632
   10   0.0006926  -0.0003163  -0.0002541  -0.0005497   0.0000898  -0.0002328
   11  -0.0003025   0.0007878  -0.0001590   0.0000898  -0.0007087  -0.0001115
   12   0.0002488   0.0000753  -0.0001632  -0.0002328  -0.0001115  -0.0002297
   13   0.0000402  -0.0000180  -0.0000215  -0.0000396  -0.0000132  -0.0000282
   14  -0.0000604   0.0000535   0.0000138   0.0000412  -0.0000023   0.0000142
   15   0.0000113  -0.0000803   0.0000097   0.0000142   0.0000352   0.0000239
   16  -0.0000058   0.0000139   0.0000033   0.0000075   0.0000102   0.0000024
   17   0.0000048  -0.0000209   0.0000123   0.0000003   0.0000116   0.0000022
   18  -0.0000021   0.0000034  -0.0000028  -0.0000009  -0.0000010  -0.0000022
   19   0.0000032   0.0000021  -0.0000033   0.0000003  -0.0000045  -0.0000030
   20  -0.0000147  -0.0000157   0.0000181  -0.0000061   0.0000138   0.0000028
   21  -0.0000068   0.0000102  -0.0000009  -0.0000041   0.0000047   0.0000005
   22  -0.0000042   0.0000029   0.0000040  -0.0000010   0.0000015  -0.0000002
   23   0.0000011  -0.0000032   0.0000003   0.0000004  -0.0000003   0.0000000
   24   0.0000001   0.0000026  -0.0000029   0.0000009  -0.0000012   0.0000003
   25   0.0000119  -0.0000042  -0.0000024  -0.0000063   0.0000047  -0.0000012
   26   0.0000000  -0.0000005  -0.0000009   0.0000014  -0.0000008   0.0000003
   27  -0.0000082   0.0000034   0.0000025   0.0000038  -0.0000023   0.0000007
   28   0.0000007   0.0000005  -0.0000005   0.0000007  -0.0000006   0.0000002
   29   0.0000032  -0.0000082  -0.0000017   0.0000031  -0.0000010   0.0000010
   30   0.0000002  -0.0000014  -0.0000004   0.0000006  -0.0000000   0.0000002
   31   0.0000245   0.0000169  -0.0000218  -0.0000115  -0.0000275  -0.0000287
   32  -0.0000402   0.0000203   0.0000206   0.0000250  -0.0000038   0.0000209
   33  -0.0000795  -0.0000211   0.0000529   0.0000645  -0.0000079   0.0000585
   34   0.0000102  -0.0000191  -0.0000035  -0.0000037   0.0000040  -0.0000010
   35   0.0000044  -0.0000068  -0.0000011  -0.0000016   0.0000023  -0.0000001
   36  -0.0000081   0.0000137   0.0000031   0.0000036  -0.0000038   0.0000011
   37  -0.0000164   0.0000180   0.0000026   0.0000142  -0.0000083   0.0000058
   38   0.0000085  -0.0000117  -0.0000034  -0.0000038   0.0000026  -0.0000008
   39  -0.0000056   0.0000031   0.0000045   0.0000018   0.0000020   0.0000024
   40  -0.0000062   0.0000099  -0.0000001   0.0000010  -0.0000050  -0.0000011
   41  -0.0000041   0.0000059   0.0000000   0.0000006  -0.0000028  -0.0000006
   42   0.0000009  -0.0000015   0.0000001  -0.0000003   0.0000009   0.0000001
   43   0.0036831  -0.0019351  -0.0014464  -0.0002096  -0.0001113  -0.0000916
   44  -0.0007152   0.0008614  -0.0000092  -0.0000033  -0.0000063  -0.0000381
   45  -0.0016703   0.0005322   0.0009016   0.0001296   0.0000472   0.0000620
   46  -0.0018962  -0.0007497   0.0015983  -0.0000377   0.0003658   0.0000510
   47  -0.0030454   0.0047026   0.0008209  -0.0001797  -0.0001183  -0.0000696
   48  -0.0020885   0.0008619   0.0012022  -0.0000083   0.0003201   0.0000757
   49   0.0039812   0.0018196  -0.0037117   0.0015974  -0.0004577   0.0005358
   50  -0.0063906   0.0084844   0.0011295   0.0029406  -0.0019304   0.0003438
   51   0.0020527   0.0027737  -0.0025892   0.0017442  -0.0006906   0.0003542
   52  -0.0017253   0.0016923   0.0007840  -0.0001483  -0.0001401  -0.0002711
   53   0.0033999  -0.0028935  -0.0015633   0.0003153  -0.0004683   0.0001338
   54  -0.0008890   0.0007296   0.0005904  -0.0002094   0.0001951  -0.0001359
   55   0.0008852  -0.0014865  -0.0003827   0.0010193  -0.0006187   0.0004062
   56  -0.0016508   0.0019053   0.0006369  -0.0006209   0.0008043  -0.0000834
   57   0.0001142  -0.0005004  -0.0000877   0.0005389  -0.0003126   0.0003217
   58  -0.0003862   0.0003518   0.0001937   0.0000712  -0.0000735   0.0000395
   59   0.0016540  -0.0015205  -0.0006623  -0.0004886   0.0002620  -0.0001702
   60  -0.0005812   0.0004513   0.0002787   0.0000849  -0.0000248   0.0000532
   61   0.0002668   0.0000022  -0.0002214   0.0000032  -0.0000281  -0.0000009
   62   0.0000156   0.0000680  -0.0000559   0.0000052  -0.0000036   0.0000033
   63   0.0000109  -0.0000327   0.0000088   0.0000009   0.0000035   0.0000002
   64   0.0002312   0.0000794  -0.0002314   0.0000223   0.0000263   0.0000414
   65  -0.0001114  -0.0000726   0.0001252  -0.0000107  -0.0000077  -0.0000179
   66   0.0000423  -0.0000749  -0.0000163  -0.0000004   0.0000040   0.0000013
   67  -0.0000218   0.0000653  -0.0000198   0.0000037  -0.0000428   0.0000010
   68   0.0000502  -0.0001154   0.0000107  -0.0000003   0.0001026   0.0000451
   69  -0.0001130   0.0002133  -0.0000130  -0.0000159  -0.0001309  -0.0000470
   70   0.0000358  -0.0000298  -0.0000231   0.0000128   0.0000317  -0.0000136
   71  -0.0000148  -0.0002862   0.0001186  -0.0000067   0.0001617   0.0001005
   72  -0.0000730   0.0001572  -0.0000042   0.0000240  -0.0000564  -0.0000362
   73   0.0000945  -0.0001193  -0.0000310   0.0000199  -0.0000267   0.0000143
   74   0.0002004  -0.0002275  -0.0000775   0.0000353  -0.0000586   0.0000235
   75   0.0000090  -0.0000192  -0.0000024   0.0000070  -0.0000026   0.0000063
   76  -0.0003116   0.0004337   0.0001625  -0.0003275   0.0002681  -0.0002311
   77   0.0000386  -0.0000946  -0.0000047   0.0000400  -0.0000231   0.0000203
   78  -0.0002324   0.0003235   0.0001021  -0.0002078   0.0001567  -0.0001446
   79  -0.0040691  -0.0012080   0.0022193  -0.0014817   0.0003476  -0.0003066
   80  -0.0018991  -0.0019895   0.0016679  -0.0014549   0.0006441  -0.0003418
   81  -0.0041798  -0.0014577   0.0023522  -0.0011255   0.0001100  -0.0001371
   82   0.0017893   0.0005200  -0.0005357  -0.0004482   0.0004720   0.0000745
   83   0.0012004  -0.0006020  -0.0004938  -0.0003348   0.0004656   0.0001996
   84   0.0020743   0.0004278  -0.0005041  -0.0005119   0.0005530   0.0000073
   85   0.0031137  -0.0026398  -0.0014144   0.0000560  -0.0001951  -0.0002105
   86   0.0024441  -0.0021480  -0.0011731   0.0001405  -0.0002827  -0.0001040
   87   0.0027086  -0.0022921  -0.0013617   0.0001960  -0.0003595  -0.0001085
   88  -0.0013605  -0.0002528   0.0010464  -0.0002611   0.0003264   0.0000577
   89  -0.0008095   0.0004415   0.0008505  -0.0002189   0.0001932  -0.0000827
   90  -0.0011337  -0.0001251   0.0009308  -0.0001736   0.0001578   0.0000105
   91   0.0002795  -0.0003575   0.0000391   0.0000329  -0.0000633   0.0000567
   92   0.0002717  -0.0003567   0.0000305   0.0000196  -0.0000425   0.0000490
   93   0.0002931  -0.0003514   0.0000427   0.0000262  -0.0000649   0.0000544
   94   0.0006296  -0.0006146   0.0000168  -0.0001307   0.0002156  -0.0000077
   95   0.0006493  -0.0007659  -0.0001009  -0.0001163   0.0003042   0.0000816
   96   0.0007201  -0.0006988  -0.0000082  -0.0001661   0.0002836   0.0000066
   97   0.0000093  -0.0000571   0.0000146   0.0000250  -0.0000041  -0.0000175
   98  -0.0000008  -0.0000433   0.0000160   0.0000194   0.0000002  -0.0000141
   99   0.0000071  -0.0000586   0.0000161   0.0000211  -0.0000062  -0.0000175
  100   0.0003552   0.0002014  -0.0003522   0.0001315  -0.0002537  -0.0001058
  101   0.0003269   0.0002499  -0.0002467   0.0001308  -0.0002048  -0.0000786
  102   0.0002302   0.0000914  -0.0003225   0.0001107  -0.0001146  -0.0000087
  103  -0.0000207  -0.0000620   0.0000790  -0.0000545   0.0001043   0.0000082
  104  -0.0000159  -0.0000425   0.0000665  -0.0000460   0.0000886   0.0000072
  105  -0.0000134  -0.0000789   0.0000749  -0.0000514   0.0000966   0.0000057
  106   0.0000904  -0.0000523  -0.0000462   0.0000002   0.0000043  -0.0000032
  107   0.0000739  -0.0000360  -0.0000387  -0.0000012   0.0000059  -0.0000037
  108   0.0000844  -0.0000343  -0.0000448  -0.0000012   0.0000062  -0.0000050
  109  -0.0000721   0.0000857   0.0001273  -0.0000008   0.0000791  -0.0000151
  110  -0.0001004   0.0000308   0.0000461  -0.0000265   0.0000531  -0.0000079
  111  -0.0000970   0.0000698   0.0000671  -0.0000225   0.0000631  -0.0000123
  112  -0.0000015  -0.0000223   0.0000221  -0.0000062   0.0000090  -0.0000007
  113  -0.0000023  -0.0000177   0.0000171  -0.0000054   0.0000077  -0.0000006
  114  -0.0000046  -0.0000200   0.0000229  -0.0000056   0.0000089  -0.0000003
  115   0.0001494  -0.0001147  -0.0000642  -0.0000032  -0.0000035   0.0000028
  116   0.0001494  -0.0000573  -0.0000434   0.0000117  -0.0000070   0.0000011
  117   0.0001921  -0.0000606  -0.0000450   0.0000183  -0.0000071  -0.0000018
  118  -0.0000008   0.0000007   0.0000003   0.0000000  -0.0000003   0.0000001
  119  -0.0000008   0.0000003   0.0000006   0.0000001  -0.0000002   0.0000000
  120  -0.0000003   0.0000003   0.0000001   0.0000006   0.0000005   0.0000002
  121  -0.0000004   0.0000003   0.0000001   0.0000001   0.0000001   0.0000001
  122  -0.0000001   0.0000001   0.0000000   0.0000001   0.0000001   0.0000000
  123   0.0000002  -0.0000001  -0.0000001  -0.0000002  -0.0000001  -0.0000000
  124   0.0000023  -0.0000038   0.0000016  -0.0000009   0.0000007  -0.0000003
  125   0.0000078  -0.0000021  -0.0000067  -0.0000030   0.0000008  -0.0000010
  126  -0.0000004  -0.0000005   0.0000013  -0.0000008  -0.0000015  -0.0000002
  127   0.0000001   0.0000000  -0.0000000   0.0000000  -0.0000000   0.0000000
  128  -0.0000001   0.0000002   0.0000001   0.0000000  -0.0000001  -0.0000000
  129   0.0000000   0.0000000  -0.0000000   0.0000000  -0.0000000   0.0000000
  130  -0.0000001   0.0000002   0.0000001   0.0000000  -0.0000001   0.0000000
  131  -0.0000002   0.0000003   0.0000001   0.0000001  -0.0000001   0.0000000
  132  -0.0000000   0.0000000   0.0000000   0.0000001   0.0000000   0.0000000
  133  -0.0000028   0.0000034   0.0000005   0.0000006  -0.0000005   0.0000001
  134  -0.0000018   0.0000019   0.0000006   0.0000006  -0.0000003   0.0000001
  135  -0.0000002  -0.0000002   0.0000002   0.0000001   0.0000004   0.0000002
  136  -0.0000000   0.0000000   0.0000000   0.0000000  -0.0000000   0.0000000
  137  -0.0000001   0.0000001   0.0000000   0.0000000  -0.0000000   0.0000000
  138  -0.0000000  -0.0000000   0.0000000  -0.0000000   0.0000000   0.0000000
  139   0.0000000  -0.0000000  -0.0000000  -0.0000000   0.0000000  -0.0000000
  140   0.0000000  -0.0000000  -0.0000000  -0.0000000   0.0000000   0.0000000
  141   0.0000000  -0.0000000  -0.0000000   0.0000000  -0.0000000  -0.0000000
  142   0.0000000  -0.0000000  -0.0000000  -0.0000000   0.0000000   0.0000000
  143   0.0000002  -0.0000003  -0.0000001  -0.0000001   0.0000001  -0.0000000
  144  -0.0000000   0.0000000   0.0000000  -0.0000000  -0.0000000   0.0000000
  145   0.0000002  -0.0000003  -0.0000000   0.0000000   0.0000001   0.0000000
  146   0.0000003  -0.0000004  -0.0000001   0.0000001   0.0000001   0.0000001
  147  -0.0000000   0.0000001  -0.0000000  -0.0000000  -0.0000000  -0.0000000
  148  -0.0000011   0.0000002   0.0000009   0.0000001  -0.0000000   0.0000000
  149  -0.0000003   0.0000000   0.0000002  -0.0000000   0.0000000  -0.0000000
  150   0.0000004  -0.0000000  -0.0000003  -0.0000000  -0.0000001  -0.0000000
  151  -0.0000001   0.0000002   0.0000001   0.0000000  -0.0000001   0.0000000
  152   0.0000000  -0.0000000  -0.0000000  -0.0000000   0.0000000   0.0000000
  153  -0.0000000   0.0000000   0.0000000   0.0000000  -0.0000000   0.0000000
  154  -0.0000001   0.0000001   0.0000000   0.0000000  -0.0000000   0.0000000
  155   0.0000000  -0.0000000  -0.0000000  -0.0000000   0.0000000  -0.0000000
  156   0.0000000   0.0000000   0.0000000   0.0000000  -0.0000000  -0.0000000
  157  -0.0000000   0.0000000  -0.0000000   0.0000000   0.0000000   0.0000000
  158  -0.0000000   0.0000001   0.0000000   0.0000000  -0.0000000   0.0000000
  159   0.0000000  -0.0000000  -0.0000000  -0.0000000  -0.0000000  -0.0000000
  160  -0.0000000   0.0000001   0.0000000   0.0000000  -0.0000000   0.0000000
  161  -0.0000001   0.0000001   0.0000000   0.0000000  -0.0000000   0.0000000
  162   0.0000000  -0.0000000  -0.0000000  -0.0000000  -0.0000000  -0.0000000
  163  -0.0000001   0.0000001   0.0000000   0.0000000  -0.0000000   0.0000000
  164  -0.0000000   0.0000000   0.0000000   0.0000000  -0.0000000   0.0000000
  165   0.0000000   0.0000000  -0.0000000   0.0000000  -0.0000000  -0.0000000
  166  -0.0000000   0.0000002  -0.0000001  -0.0000001  -0.0000000  -0.0000000
  167  -0.0000001   0.0000001   0.0000000   0.0000000  -0.0000000   0.0000000
  168   0.0000000   0.0000001  -0.0000000  -0.0000000  -0.0000001  -0.0000001
           13          14          15          16          17          18
    1   0.0000026  -0.0000016  -0.0000046   0.0000037  -0.0000048   0.0000020
    2  -0.0000008   0.0000019   0.0000048  -0.0000035   0.0000023  -0.0000019
    3   0.0000002   0.0000000   0.0000027  -0.0000028   0.0000027  -0.0000020
    4   0.0000016   0.0000024  -0.0000068   0.0000006   0.0000018   0.0000027
    5   0.0000024  -0.0000058   0.0000022   0.0000055  -0.0000068   0.0000048
    6  -0.0000039  -0.0000040  -0.0000012   0.0000025  -0.0000012   0.0000023
    7   0.0000402  -0.0000604   0.0000113  -0.0000058   0.0000048  -0.0000021
    8  -0.0000180   0.0000535  -0.0000803   0.0000139  -0.0000209   0.0000034
    9  -0.0000215   0.0000138   0.0000097   0.0000033   0.0000123  -0.0000028
   10  -0.0000396   0.0000412   0.0000142   0.0000075   0.0000003  -0.0000009
   11  -0.0000132  -0.0000023   0.0000352   0.0000102   0.0000116  -0.0000010
   12  -0.0000282   0.0000142   0.0000239   0.0000024   0.0000022  -0.0000022
   13  -0.0000222   0.0000126   0.0000131   0.0000004  -0.0000027  -0.0000012
   14   0.0000126  -0.0000284   0.0000007  -0.0000019   0.0000045   0.0000005
   15   0.0000131   0.0000007  -0.0000326   0.0000040  -0.0000043   0.0000027
   16   0.0000004  -0.0000019   0.0000040  -0.0000065  -0.0000001  -0.0000008
   17  -0.0000027   0.0000045  -0.0000043  -0.0000001  -0.0000082   0.0000008
   18  -0.0000012   0.0000005   0.0000027  -0.0000008   0.0000008  -0.0000031
   19  -0.0000006   0.0000000   0.0000005   0.0000001  -0.0000004  -0.0000003
   20   0.0000007   0.0000012   0.0000012  -0.0000010  -0.0000015  -0.0000008
   21   0.0000006   0.0000012   0.0000011  -0.0000002  -0.0000012  -0.0000003
   22  -0.0000001  -0.0000000  -0.0000001   0.0000001  -0.0000000   0.0000002
   23   0.0000000   0.0000000   0.0000001  -0.0000001  -0.0000000   0.0000000
   24  -0.0000000  -0.0000001  -0.0000001   0.0000002   0.0000001   0.0000001
   25  -0.0000003   0.0000008   0.0000015  -0.0000003   0.0000007  -0.0000007
   26   0.0000000  -0.0000003  -0.0000005   0.0000002   0.0000003   0.0000003
   27  -0.0000000  -0.0000006  -0.0000004   0.0000003  -0.0000003   0.0000002
   28  -0.0000001  -0.0000001  -0.0000000   0.0000000  -0.0000000   0.0000000
   29   0.0000002  -0.0000004  -0.0000002   0.0000002  -0.0000003   0.0000001
   30   0.0000001  -0.0000001   0.0000000  -0.0000000  -0.0000001  -0.0000001
   31  -0.0000041   0.0000060  -0.0000009  -0.0000007  -0.0000027   0.0000006
   32   0.0000041  -0.0000024  -0.0000001  -0.0000023  -0.0000008   0.0000007
   33   0.0000024  -0.0000085   0.0000001  -0.0000003   0.0000016   0.0000005
   34   0.0000027   0.0000026  -0.0000057   0.0000003  -0.0000009   0.0000002
   35   0.0000004   0.0000016  -0.0000011  -0.0000000  -0.0000005  -0.0000001
   36  -0.0000017  -0.0000016   0.0000028  -0.0000001   0.0000005   0.0000003
   37   0.0000048  -0.0000052   0.0000001   0.0000001   0.0000019   0.0000008
   38  -0.0000039   0.0000047   0.0000005   0.0000013   0.0000005  -0.0000007
   39   0.0000012  -0.0000004  -0.0000027   0.0000011  -0.0000004   0.0000010
   40   0.0000001  -0.0000014   0.0000019   0.0000003   0.0000025  -0.0000006
   41   0.0000002  -0.0000013   0.0000013   0.0000000   0.0000020  -0.0000003
   42  -0.0000001   0.0000004  -0.0000003  -0.0000000  -0.0000004   0.0000002
   43  -0.0000013  -0.0000079   0.0000234  -0.0000051   0.0000088  -0.0000015
   44  -0.0000037   0.0000087  -0.0000086   0.0000031  -0.0000025  -0.0000000
   45   0.0000004  -0.0000009  -0.0000118   0.0000021  -0.0000048   0.0000008
   46  -0.0000047   0.0000148  -0.0000096   0.0000080  -0.0000248   0.0000085
   47   0.0000132  -0.0000253   0.0000708  -0.0000348   0.0000399  -0.0000136
   48   0.0000138   0.0000003  -0.0000053  -0.0000015  -0.0000087   0.0000001
   49   0.0002100  -0.0000413  -0.0001012  -0.0000482   0.0000323  -0.0000459
   50   0.0001740  -0.0001445  -0.0000506  -0.0000472  -0.0000458   0.0000240
   51   0.0001791  -0.0000505  -0.0000771  -0.0000464   0.0000097  -0.0000297
   52  -0.0000639   0.0000692   0.0000662  -0.0000074  -0.0000190   0.0000072
   53   0.0001130  -0.0001340  -0.0001348   0.0000368   0.0000443  -0.0000080
   54  -0.0000215   0.0000417   0.0000021  -0.0000120  -0.0000225   0.0000068
   55   0.0000773  -0.0001125  -0.0000314   0.0000030   0.0000212   0.0000000
   56  -0.0000874   0.0001000   0.0000796  -0.0000191  -0.0000199  -0.0000019
   57   0.0000238  -0.0000476   0.0000347   0.0000019   0.0000222  -0.0000048
   58   0.0000072  -0.0000117   0.0000052  -0.0000002  -0.0000008   0.0000021
   59  -0.0000347   0.0000404  -0.0000093   0.0000089   0.0000007  -0.0000016
   60   0.0000107  -0.0000117  -0.0000007  -0.0000042   0.0000015   0.0000021
   61   0.0000006  -0.0000013   0.0000022  -0.0000003   0.0000025  -0.0000010
   62   0.0000004  -0.0000006   0.0000004  -0.0000000   0.0000007  -0.0000004
   63  -0.0000001   0.0000002   0.0000000  -0.0000002  -0.0000001   0.0000000
   64   0.0000064  -0.0000009  -0.0000121  -0.0000017   0.0000019   0.0000002
   65  -0.0000029   0.0000005   0.0000067   0.0000011  -0.0000014  -0.0000000
   66  -0.0000005   0.0000007  -0.0000000   0.0000002  -0.0000004   0.0000000
   67  -0.0000030  -0.0000031   0.0000029   0.0000009   0.0000012  -0.0000003
   68   0.0000010   0.0000009  -0.0000034  -0.0000016  -0.0000028   0.0000002
   69  -0.0000040   0.0000010   0.0000091   0.0000022   0.0000035  -0.0000003
   70  -0.0000044  -0.0000050   0.0000065  -0.0000004  -0.0000005  -0.0000010
   71   0.0000139   0.0000080  -0.0000140  -0.0000020  -0.0000011  -0.0000003
   72  -0.0000043  -0.0000012   0.0000053  -0.0000005  -0.0000004   0.0000004
   73   0.0000044  -0.0000025   0.0000004   0.0000000   0.0000018  -0.0000005
   74   0.0000088  -0.0000056  -0.0000006   0.0000009   0.0000035  -0.0000011
   75  -0.0000001  -0.0000005   0.0000019  -0.0000002   0.0000004  -0.0000002
   76   0.0000184   0.0000183  -0.0000383   0.0000043  -0.0000147   0.0000001
   77   0.0000004  -0.0000044   0.0000061  -0.0000021   0.0000020  -0.0000002
   78   0.0000160   0.0000103  -0.0000266   0.0000018  -0.0000091   0.0000007
   79  -0.0001446  -0.0000068   0.0000096   0.0000347   0.0000710   0.0000183
   80  -0.0001453   0.0001195   0.0000888   0.0000278   0.0000164  -0.0000242
   81  -0.0001038  -0.0000426  -0.0000167   0.0000535   0.0000673   0.0000236
   82  -0.0001650   0.0000998   0.0002497  -0.0000486  -0.0000418   0.0000002
   83  -0.0001077   0.0000246   0.0001356  -0.0000221   0.0000062   0.0000210
   84  -0.0001648   0.0001513   0.0002703  -0.0000453  -0.0000679  -0.0000154
   85   0.0000946  -0.0000032  -0.0002215   0.0000393  -0.0000413   0.0000182
   86   0.0000897  -0.0000262  -0.0001595   0.0000202  -0.0000176   0.0000084
   87   0.0000990  -0.0000507  -0.0001865   0.0000139  -0.0000107   0.0000144
   88  -0.0000470   0.0000051   0.0000088   0.0000160   0.0000094   0.0000092
   89  -0.0000528   0.0000181   0.0000715  -0.0000073  -0.0000042  -0.0000109
   90  -0.0000463  -0.0000046   0.0000249   0.0000124   0.0000099   0.0000028
   91   0.0000002   0.0000026   0.0000025   0.0000084  -0.0000052   0.0000009
   92  -0.0000003   0.0000022   0.0000023   0.0000069  -0.0000040   0.0000007
   93   0.0000004   0.0000013   0.0000031   0.0000076  -0.0000035   0.0000005
   94   0.0000214   0.0000183   0.0000033   0.0000012  -0.0000052  -0.0000105
   95   0.0000290  -0.0000113  -0.0000476   0.0000125   0.0000104   0.0000092
   96   0.0000237   0.0000165  -0.0000121   0.0000032  -0.0000047  -0.0000069
   97  -0.0000031  -0.0000011   0.0000025   0.0000011  -0.0000034  -0.0000011
   98  -0.0000025  -0.0000011   0.0000020   0.0000009  -0.0000027  -0.0000009
   99  -0.0000035  -0.0000010   0.0000022   0.0000011  -0.0000035  -0.0000010
  100   0.0000078  -0.0000419   0.0000011  -0.0000180   0.0000190  -0.0000004
  101   0.0000125   0.0000121   0.0000138   0.0000044  -0.0000172  -0.0000115
  102   0.0000193  -0.0000369  -0.0000222  -0.0000019   0.0000142   0.0000087
  103  -0.0000057   0.0000053   0.0000069  -0.0000023  -0.0000023   0.0000001
  104  -0.0000043   0.0000040   0.0000057  -0.0000021  -0.0000019   0.0000002
  105  -0.0000056   0.0000052   0.0000065  -0.0000021  -0.0000020  -0.0000001
  106   0.0000035  -0.0000028  -0.0000067   0.0000012  -0.0000000   0.0000003
  107   0.0000028  -0.0000021  -0.0000055   0.0000008  -0.0000001   0.0000003
  108   0.0000031  -0.0000021  -0.0000065   0.0000008  -0.0000003   0.0000004
  109   0.0000038   0.0000319   0.0000096   0.0000170  -0.0000190  -0.0000086
  110  -0.0000015  -0.0000158  -0.0000080  -0.0000104   0.0000169   0.0000065
  111   0.0000026  -0.0000089  -0.0000040  -0.0000017   0.0000086   0.0000030
  112  -0.0000008   0.0000016   0.0000014  -0.0000007  -0.0000004  -0.0000000
  113  -0.0000007   0.0000011   0.0000011  -0.0000006  -0.0000003   0.0000000
  114  -0.0000008   0.0000017   0.0000016  -0.0000007  -0.0000005  -0.0000000
  115   0.0000035  -0.0000213  -0.0000091  -0.0000052   0.0000107   0.0000048
  116   0.0000021   0.0000046  -0.0000016   0.0000027  -0.0000046  -0.0000014
  117   0.0000023   0.0000139   0.0000021   0.0000061  -0.0000109  -0.0000044
  118   0.0000001   0.0000000   0.0000003  -0.0000007   0.0000002  -0.0000000
  119   0.0000001  -0.0000000   0.0000001  -0.0000003   0.0000005   0.0000001
  120   0.0000000   0.0000000  -0.0000001  -0.0000001  -0.0000000   0.0000004
  121   0.0000000  -0.0000001   0.0000001   0.0000000   0.0000002  -0.0000000
  122  -0.0000000  -0.0000000   0.0000000   0.0000000   0.0000000  -0.0000000
  123  -0.0000000  -0.0000000   0.0000000   0.0000001   0.0000000  -0.0000000
  124  -0.0000006   0.0000019  -0.0000018   0.0000043  -0.0000029   0.0000007
  125   0.0000014   0.0000001  -0.0000008  -0.0000002   0.0000022  -0.0000001
  126   0.0000001  -0.0000004   0.0000001   0.0000005   0.0000002   0.0000018
  127   0.0000000  -0.0000000   0.0000000  -0.0000000   0.0000000  -0.0000000
  128   0.0000000   0.0000000  -0.0000000   0.0000000  -0.0000000   0.0000000
  129   0.0000000   0.0000000   0.0000000  -0.0000000  -0.0000000  -0.0000000
  130   0.0000000   0.0000000   0.0000000   0.0000000  -0.0000000  -0.0000000
  131   0.0000000  -0.0000000   0.0000000  -0.0000000   0.0000000  -0.0000000
  132   0.0000000  -0.0000000  -0.0000000   0.0000000  -0.0000000   0.0000000
  133  -0.0000002  -0.0000004   0.0000006  -0.0000008   0.0000007  -0.0000002
  134  -0.0000002  -0.0000003   0.0000003  -0.0000001   0.0000001  -0.0000001
  135   0.0000000  -0.0000000  -0.0000001   0.0000001  -0.0000001  -0.0000003
  136   0.0000000   0.0000000  -0.0000000   0.0000000  -0.0000000   0.0000000
  137   0.0000000   0.0000000   0.0000000  -0.0000000   0.0000000  -0.0000000
  138   0.0000000   0.0000000  -0.0000000   0.0000000  -0.0000000   0.0000000
  139  -0.0000000  -0.0000000   0.0000000  -0.0000000   0.0000000  -0.0000000
  140  -0.0000000   0.0000000  -0.0000000  -0.0000000   0.0000000  -0.0000000
  141  -0.0000000  -0.0000000  -0.0000000   0.0000000  -0.0000000   0.0000000
  142  -0.0000000  -0.0000000   0.0000000  -0.0000000   0.0000000   0.0000000
  143  -0.0000000   0.0000000  -0.0000000   0.0000000  -0.0000000   0.0000000
  144   0.0000000  -0.0000000   0.0000000  -0.0000000   0.0000000  -0.0000000
  145  -0.0000000  -0.0000001  -0.0000000   0.0000001   0.0000002   0.0000000
  146  -0.0000001  -0.0000000   0.0000000   0.0000002   0.0000001   0.0000000
  147  -0.0000000   0.0000000   0.0000000  -0.0000000  -0.0000000  -0.0000000
  148  -0.0000004   0.0000001   0.0000000   0.0000003  -0.0000003   0.0000002
  149  -0.0000002   0.0000000   0.0000000   0.0000002  -0.0000000   0.0000000
  150   0.0000001  -0.0000000   0.0000000  -0.0000001   0.0000001  -0.0000001
  151   0.0000000  -0.0000000   0.0000000  -0.0000000   0.0000000  -0.0000000
  152  -0.0000000  -0.0000000   0.0000000  -0.0000000   0.0000000   0.0000000
  153  -0.0000000  -0.0000000   0.0000000  -0.0000000   0.0000000   0.0000000
  154   0.0000000  -0.0000000   0.0000000  -0.0000000   0.0000000   0.0000000
  155  -0.0000000   0.0000000  -0.0000000   0.0000000  -0.0000000  -0.0000000
  156   0.0000000  -0.0000000  -0.0000000  -0.0000000   0.0000000   0.0000000
  157  -0.0000000   0.0000000   0.0000000  -0.0000000   0.0000000  -0.0000000
  158   0.0000000  -0.0000000   0.0000000  -0.0000000   0.0000000   0.0000000
  159   0.0000000  -0.0000000  -0.0000000  -0.0000000  -0.0000000   0.0000000
  160  -0.0000000  -0.0000000   0.0000000  -0.0000000   0.0000000   0.0000000
  161   0.0000000  -0.0000000   0.0000000  -0.0000000   0.0000000  -0.0000000
  162  -0.0000000  -0.0000000  -0.0000000  -0.0000000  -0.0000000   0.0000000
  163   0.0000000  -0.0000000   0.0000000  -0.0000000   0.0000000   0.0000000
  164   0.0000000  -0.0000000   0.0000000  -0.0000000   0.0000000  -0.0000000
  165   0.0000000  -0.0000000   0.0000000  -0.0000000   0.0000000  -0.0000000
  166   0.0000000  -0.0000000   0.0000000  -0.0000001   0.0000001  -0.0000000
  167  -0.0000000  -0.0000000  -0.0000000   0.0000001  -0.0000000   0.0000000
  168  -0.0000000  -0.0000000  -0.0000000   0.0000000  -0.0000000   0.0000001
           19          20          21          22          23          24
    1  -0.0000030   0.0000019  -0.0000003   0.0000001   0.0000000  -0.0000006
    2   0.0000017  -0.0000001   0.0000004  -0.0000002  -0.0000002   0.0000000
    3   0.0000017  -0.0000011  -0.0000014  -0.0000001  -0.0000003  -0.0000001
    4   0.0000140  -0.0000071  -0.0000024   0.0000009  -0.0000008   0.0000001
    5  -0.0000044   0.0000146  -0.0000016  -0.0000012   0.0000013  -0.0000009
    6  -0.0000056   0.0000055   0.0000095  -0.0000009   0.0000003   0.0000010
    7   0.0000032  -0.0000147  -0.0000068  -0.0000042   0.0000011   0.0000001
    8   0.0000021  -0.0000157   0.0000102   0.0000029  -0.0000032   0.0000026
    9  -0.0000033   0.0000181  -0.0000009   0.0000040   0.0000003  -0.0000029
   10   0.0000003  -0.0000061  -0.0000041  -0.0000010   0.0000004   0.0000009
   11  -0.0000045   0.0000138   0.0000047   0.0000015  -0.0000003  -0.0000012
   12  -0.0000030   0.0000028   0.0000005  -0.0000002   0.0000000   0.0000003
   13  -0.0000006   0.0000007   0.0000006  -0.0000001   0.0000000  -0.0000000
[...]
   34      C       5.9352797796    -1.5924332422     0.1439146565
   35      H       4.7537114100    -2.0762325396     1.9216488142
   36      H       6.9440394358    -0.7314223968    -1.5828342287
   37      C       6.7708026517    -2.7638084839     0.2010319674
   38      H       6.5632901841    -3.4692142917     1.0081910225
   39      O       7.6631291977    -2.9828325547    -0.5879519301
   40      C      -4.3143481715     0.7289067733    -0.0198447163
   41      C      -5.5160500693    -0.0162768389    -0.1646035828
   42      C      -3.1145979770     0.1268628992     0.2059897885
   43      C      -6.7675007303     0.6115704144    -0.4001631716
   44      C      -5.4665659311    -1.4190340483    -0.0721104988
   45      C      -3.0813263607    -1.2950967907     0.2971028859
   46      C      -7.9003328042    -0.1267093129    -0.5345295040
   47      H      -6.8064202822     1.6849476701    -0.4711400494
   48      C      -6.6648804464    -2.1652259543    -0.2164150228
   49      C      -4.2091453665    -2.0361855206     0.1636807374
   50      H      -2.1444087722    -1.7923996136     0.4746000821
   51      C      -7.8491595223    -1.5382347654    -0.4412988719
   52      H      -8.8438501126     0.3583315971    -0.7128689733
   53      H      -6.6217882778    -3.2384665996    -0.1449875234
   54      H      -4.1617987299    -3.1093207672     0.2355711177
   55      H      -8.7536679265    -2.1102038060    -0.5497488395
   56      H      -4.3701577016     1.8020731636    -0.0935538146
 ----------------------------------------------------------------
 Nuclear Repulsion Energy =  2355.6588632778 hartrees
 There are       99 alpha and       99 beta electrons
 Requested basis set is 6-31G(d,p)
 There are 196 shells and 560 basis functions

Total QAlloc Memory Limit  20000 MB
Mega-Array Size      4888 MB
MEM_STATIC part      5000 MB
 A cutoff of  1.0D-12 yielded   9772 shell pairs
 There are     79856 function pairs
 Smallest overlap matrix eigenvalue = 2.65E-04

  Scale SEOQF with 1.000000e-02/1.000000e-01/1.000000e-01

 Standard Electronic Orientation quadrupole field applied
 Nucleus-field energy     =     0.0000000315 hartrees
 Guess MOs from SCF MO coefficient file
Reading MOs from coefficient file
Reading MOs from coefficient file
 A restricted Hartree-Fock SCF calculation will be
 performed using Pulay DIIS extrapolation
 SCF converges when DIIS error is below 1.0E-10
 ---------------------------------------
  Cycle       Energy         DIIS Error
 ---------------------------------------
    1   -1113.6857537010      1.71E-11
    2   -1113.6857537009      2.28E-11 Convergence criterion met
 ---------------------------------------
 SCF time:  CPU 166.22 s  wall 166.50 s
 SCF   energy in the final basis set = -1113.6857537009
 Total energy in the final basis set = -1113.6857537009
 Direct RCIS calculation will be performed
 Triplet excitation energies requested
 CIS energy converged when residual is below 10e-10
 ---------------------------------------------------
 Iter    Rts Conv    Rts Left    Ttl Dev     Max Dev
 ---------------------------------------------------
   1         0           2      0.000070    0.000040
   2         0           2      0.000552    0.000540
   3         0           2      0.000802    0.000613
   4         0           2      0.000381    0.000296
   5         0           2      0.000234    0.000188
   6         0           2      0.000154    0.000136
   7         0           2      0.000055    0.000051
   8         0           2      0.000020    0.000019
   9         0           2      0.000008    0.000008
  10         0           2      0.000004    0.000004
  11         0           2      0.000002    0.000002
  12         0           2      0.000001    0.000001
  13         0           2      0.000001    0.000001
  14         0           2      0.000000    0.000000
  15         0           2      0.000000    0.000000
  16         0           2      0.000000    0.000000
  17         0           2      0.000000    0.000000
  18         0           2      0.000000    0.000000
  19         0           2      0.000000    0.000000
  20         1           1      0.000000    0.000000
  21         1           1      0.000000    0.000000
  22         1           1      0.000000    0.000000
  23         2           0      0.000000    0.000000    Roots Converged
 ---------------------------------------------------
 
 
 ---------------------------------------------------
               CIS Excitation Energies              
 ---------------------------------------------------

 Excited state   1: excitation energy (eV) =    2.5273
    Total energy for state   1:  -1113.592875771147
    Multiplicity: Triplet 
    Trans. Mom.:  0.0000 X   0.0000 Y   0.0000 Z
    Strength   :  0.0000
    D( 96) --> V(  4) amplitude =  0.2789
    D( 97) --> V(  1) amplitude =  0.8992

 Excited state   2: excitation energy (eV) =    2.7871
    Total energy for state   2:  -1113.583330939186
    Multiplicity: Triplet 
    Trans. Mom.:  0.0000 X   0.0000 Y   0.0000 Z
    Strength   :  0.0000
    D( 95) --> V(  5) amplitude = -0.3248
    D( 98) --> V(  3) amplitude =  0.3754
    D( 99) --> V(  2) amplitude = -0.8036
 
 ---------------------------------------------------
  Timing summary (seconds)
  CPU time       3290.18s
  System time       0.00s
  Wall time      3295.40s


 Entering the ER Localization Code for CIS excited states. 

NOTE: THIS HAS BEEN ONLY PARTIALLY TESTED FOR THE CASE THAT WE HAVE UNRESTRICTED ORBITALS.
INITIAL CENTER1 LOCATIONS: state 0  Occ x 10.115 y -1.427 z  0.057 Virt x 10.050 y -1.371 z  0.066
INITIAL CENTER1 LOCATIONS: state 1  Occ x -10.375 y -1.321 z -0.225 Virt x -10.351 y -1.356 z -0.220
INITIAL CENTER2 LOCATIONS: state 0  Occ x 108.039 y  8.799 z  2.519 Virt x 106.949 y  9.386 z  3.134
INITIAL CENTER2 LOCATIONS: state 1  Occ x 119.176 y  7.346 z  2.558 Virt x 119.805 y  7.459 z  2.428
INITIAL STANDARD DEVIATIONS: state 0  Occ x  2.394 y  2.600 z  1.586 Virt x  2.437 y  2.740 z  1.769
INITIAL STANDARD DEVIATIONS: state 1  Occ x  3.397 y  2.366 z  1.583 Virt x  3.560 y  2.371 z  1.543
INITIAL : state 0 sum of square of distances to other adiabatic states Occ 419.907637 Virt 416.281896
INITIAL : state 1 sum of square of distances to other adiabatic states Occ 419.907637 Virt 416.281896



Calling Random Orthogonal Matrix...
RandomSeed = 25
location random matrix in checkantisymmetry: max_diff = 0.000000e+00
location random matrix in checkunitary: max_diff = 0.000000e+00
 initially ruedvalue =    1.02202116375987     
showmatrix initial R-Matrix(0,0) =   0.5521706028
showmatrix initial R-Matrix(1,0) =   0.0032465959
showmatrix initial R-Matrix(0,1) =  -0.0039692334
showmatrix initial R-Matrix(1,1) =   0.4698505610
JacSwp  rnd     1 max_diff -9.999000e+03 ruedval     1.0221478651
In RUED_JACOBI SWEEPS for DIABATIC STATES, ending in round     1  because max_diff = 3.252607e-19
showmatrix final R-Matrix(0,0) =   0.5522402965
showmatrix final R-Matrix(1,0) =   0.0000000415
showmatrix final R-Matrix(0,1) =   0.0000000415
showmatrix final R-Matrix(1,1) =   0.4699075686
showmatrix final adiabatic -> diabatic RotMatrix(0,0) =   1.0000000000
showmatrix final adiabatic -> diabatic RotMatrix(1,0) =   0.0000086254
showmatrix final adiabatic -> diabatic RotMatrix(0,1) =  -0.0000086254
showmatrix final adiabatic -> diabatic RotMatrix(1,1) =   1.0000000000
location RotMatrix in boys_diabatic_nogs in checkunitary: max_diff = 0.000000e+00
showing H in adiabatic representation: NO coupling elements!!!
showmatrix adiabatH(0,0) =   0.0928779298
showmatrix adiabatH(1,0) =   0.0000000000
showmatrix adiabatH(0,1) =   0.0000000000
showmatrix adiabatH(1,1) =   0.1024227618
getting H in diabatic representation: WITH coupling elements!!!
showmatrix diabatH(0,0) =   0.0928779298
showmatrix diabatH(1,0) =   0.0000000823
showmatrix diabatH(0,1) =   0.0000000823
showmatrix diabatH(1,1) =   0.1024227618
FINAL CENTER LOCATIONS Spin Occ : state 0 x 10.115 y -1.427 z  0.057  Virt x 10.050 y -1.371 z  0.066
FINAL CENTER LOCATIONS Spin Occ : state 1 x -10.375 y -1.321 z -0.225  Virt x -10.351 y -1.356 z -0.220
FINAL CENTER2 LOCATIONS: state 0  Occ x 108.039 y  8.799 z  2.519 Virt x 106.949 y  9.386 z  3.134
FINAL CENTER2 LOCATIONS: state 1  Occ x 119.176 y  7.346 z  2.558 Virt x 119.805 y  7.459 z  2.428
FINAL STANDARD DEVIATIONS: state 0  Occ x  2.394 y  2.600 z  1.586 Virt x  2.437 y  2.740 z  1.769
FINAL STANDARD DEVIATIONS: state 1  Occ x  3.397 y  2.366 z  1.583 Virt x  3.560 y  2.371 z  1.543
FINAL: state 0 sum of square of distances to other Centers Occ 419.907637 Virt 416.281896 
FINAL: state 1 sum of square of distances to other Centers Occ 419.907637 Virt 416.281896 



Calculating ER second derivative! Everything should be negative. If so, we are done.
location hessian --max_diff from checksymmetry = 0.000000e+00
eval of hessian: count 0 eval -3.288632
 STSman time:  CPU 0.00 s  wall 0.00 s

 Analysis of SCF Wavefunction
 
 --------------------------------------------------------------
                    Orbital Energies (a.u.)
 --------------------------------------------------------------
 
 Alpha MOs
 -- Occupied --
-20.548 -11.322 -11.275 -11.260 -11.251 -11.247 -11.246 -11.243
-11.241 -11.237 -11.236 -11.236 -11.232 -11.232 -11.231 -11.231
-11.230 -11.229 -11.229 -11.228 -11.227 -11.226 -11.226 -11.225
-11.221 -11.221 -11.220 -11.219  -1.378  -1.177  -1.164  -1.146
 -1.119  -1.091  -1.052  -1.046  -1.039  -1.033  -1.008  -0.992
 -0.983  -0.965  -0.901  -0.866  -0.850  -0.845  -0.828  -0.819
 -0.813  -0.809  -0.783  -0.767  -0.758  -0.701  -0.700  -0.689
 -0.672  -0.663  -0.648  -0.643  -0.634  -0.622  -0.619  -0.614
 -0.606  -0.600  -0.599  -0.591  -0.589  -0.579  -0.576  -0.568
 -0.557  -0.546  -0.540  -0.532  -0.526  -0.525  -0.513  -0.506
 -0.500  -0.493  -0.491  -0.483  -0.480  -0.476  -0.470  -0.465
 -0.460  -0.452  -0.436  -0.417  -0.416  -0.411  -0.378  -0.355
 -0.316  -0.310  -0.286
 -- Virtual --
  0.069   0.103   0.131   0.139   0.190   0.207   0.220   0.225
  0.235   0.240   0.246   0.256   0.260   0.263   0.270   0.281
  0.283   0.289   0.297   0.302   0.309   0.314   0.317   0.320
  0.322   0.326   0.330   0.334   0.341   0.342   0.351   0.354
  0.357   0.363   0.372   0.379   0.387   0.395   0.403   0.410
  0.416   0.423   0.425   0.434   0.440   0.442   0.452   0.459
  0.468   0.476   0.483   0.486   0.496   0.496   0.502   0.518
  0.526   0.533   0.539   0.549   0.574   0.587   0.600   0.669
  0.674   0.703   0.705   0.712   0.718   0.725   0.726   0.730
  0.734   0.744   0.744   0.746   0.752   0.754   0.767   0.769
  0.778   0.786   0.789   0.794   0.798   0.801   0.807   0.810
  0.815   0.821   0.825   0.830   0.838   0.843   0.847   0.854
  0.863   0.868   0.872   0.879   0.889   0.896   0.904   0.912
  0.919   0.931   0.936   0.940   0.941   0.951   0.955   0.973
  0.978   0.980   0.984   0.996   1.002   1.014   1.028   1.032
  1.042   1.045   1.059   1.062   1.064   1.065   1.077   1.078
  1.079   1.084   1.087   1.089   1.091   1.101   1.105   1.106
  1.111   1.116   1.122   1.125   1.133   1.133   1.140   1.146
  1.149   1.158   1.170   1.175   1.184   1.187   1.190   1.194
  1.196   1.206   1.215   1.217   1.223   1.225   1.230   1.239
  1.240   1.249   1.257   1.258   1.269   1.282   1.286   1.306
  1.313   1.320   1.329   1.347   1.356   1.365   1.381   1.391
  1.402   1.410   1.420   1.431   1.438   1.459   1.468   1.472
  1.496   1.503   1.508   1.517   1.525   1.533   1.552   1.567
  1.574   1.599   1.604   1.621   1.627   1.641   1.647   1.655
  1.660   1.664   1.665   1.676   1.680   1.691   1.700   1.703
  1.719   1.728   1.730   1.760   1.769   1.774   1.787   1.789
  1.805   1.809   1.820   1.831   1.844   1.861   1.903   1.909
  1.947   1.965   1.999   2.006   2.022   2.039   2.043   2.046
  2.052   2.057   2.065   2.071   2.079   2.098   2.112   2.115
  2.122   2.130   2.141   2.144   2.148   2.150   2.160   2.171
  2.175   2.184   2.188   2.195   2.205   2.208   2.209   2.217
  2.228   2.228   2.235   2.236   2.241   2.249   2.261   2.264
  2.272   2.278   2.280   2.293   2.301   2.303   2.307   2.320
  2.336   2.342   2.348   2.357   2.367   2.385   2.390   2.397
  2.410   2.415   2.426   2.430   2.442   2.451   2.463   2.465
  2.466   2.475   2.498   2.508   2.511   2.520   2.529   2.536
  2.547   2.551   2.564   2.576   2.589   2.591   2.598   2.609
  2.611   2.630   2.634   2.636   2.650   2.663   2.670   2.673
  2.677   2.687   2.697   2.704   2.712   2.718   2.720   2.730
  2.735   2.746   2.749   2.759   2.765   2.768   2.776   2.778
  2.784   2.790   2.804   2.810   2.826   2.831   2.835   2.847
  2.854   2.879   2.880   2.889   2.895   2.896   2.911   2.917
  2.921   2.928   2.932   2.943   2.946   2.950   2.952   2.960
  2.969   2.973   2.986   2.996   3.002   3.017   3.030   3.039
  3.039   3.053   3.064   3.065   3.079   3.084   3.087   3.109
  3.117   3.121   3.142   3.153   3.163   3.167   3.179   3.192
  3.197   3.200   3.211   3.221   3.226   3.235   3.241   3.253
  3.260   3.278   3.294   3.297   3.323   3.331   3.337   3.360
  3.369   3.375   3.397   3.408   3.426   3.442   3.489   3.534
  3.535   3.556   3.604   3.631   3.633   3.642   3.654   3.659
  3.671   3.697   3.713   3.717   3.726   3.733   3.741   3.773
  3.793   3.804   3.811   3.819   3.866   3.878   3.889   3.891
  3.905   3.923   3.929   3.931   3.971   3.992   4.171   4.193
  4.317   4.365   4.524   4.547   4.573   4.575   4.587   4.592
  4.616   4.645   4.716   4.742   4.793   4.814   4.843   4.853
  4.871   4.882   4.945   4.951   4.982   5.088   5.152   5.183
  5.237   5.272   5.291   5.307   5.384
 --------------------------------------------------------------
 
          Ground-State Mulliken Net Atomic Charges

     Atom                 Charge (a.u.)
  ----------------------------------------
      1 C                    -0.200761
      2 C                    -0.208496
      3 C                    -0.124472
      4 C                    -0.126264
      5 C                    -0.184851
      6 C                    -0.159176
      7 H                     0.107178
      8 H                     0.112138
      9 H                     0.106376
     10 H                     0.124208
     11 H                     0.103719
     12 H                     0.122799
     13 H                     0.106316
     14 H                     0.119526
     15 H                     0.109631
     16 C                    -0.213777
     17 C                    -0.154727
     18 C                    -0.214553
     19 C                    -0.205431
     20 H                     0.144949
     21 H                     0.116705
     22 H                     0.119032
     23 H                     0.115323
     24 H                     0.121060
     25 H                     0.117298
     26 H                     0.117383
     27 C                     0.026187
     28 C                    -0.168510
     29 C                    -0.161978
     30 C                    -0.116053
     31 H                     0.153611
     32 C                    -0.084517
     33 H                     0.152040
     34 C                    -0.180576
     35 H                     0.164158
     36 H                     0.196781
     37 C                     0.397065
     38 H                     0.106326
     39 O                    -0.538755
     40 C                    -0.160279
     41 C                    -0.026774
     42 C                     0.010689
     43 C                    -0.127630
     44 C                    -0.041287
     45 C                    -0.149159
     46 C                    -0.157897
     47 H                     0.150135
     48 C                    -0.125350
     49 C                    -0.125712
     50 H                     0.147161
     51 C                    -0.160348
     52 H                     0.149910
     53 H                     0.151253
     54 H                     0.152194
     55 H                     0.149874
     56 H                     0.146308
  ----------------------------------------
  Sum of atomic charges =     0.000000

 -----------------------------------------------------------------
                    Cartesian Multipole Moments
 -----------------------------------------------------------------
    Charge (ESU x 10^10)
                 0.0000
    Dipole Moment (Debye)
         X      -3.2019      Y       2.5997      Z       1.4886
       Tot       4.3848
    Quadrupole Moments (Debye-Ang)
        XX    -203.7314     XY      19.0596     YY    -161.9447
        XZ      10.6210     YZ      -8.9919     ZZ    -168.6641
    Octopole Moments (Debye-Ang^2)
       XXX    -470.9728    XXY     158.7613    XYY     -73.5745
       YYY       0.7919    XXZ      36.3746    XYZ     -49.6323
       YYZ      18.0622    XZZ      53.0340    YZZ       1.1730
       ZZZ       1.2639
    Hexadecapole Moments (Debye-Ang^3)
      XXXX  -24450.9648   XXXY    1463.3425   XXYY   -4362.2764
      XYYY     183.2353   YYYY   -2521.6826   XXXZ     641.8421
      XXYZ    -358.4882   XYYZ     134.1665   YYYZ     -67.0396
      XXZZ   -3978.4845   XYZZ     -59.6819   YYZZ    -615.9426
      XZZZ     -42.2703   YZZZ     -12.1351   ZZZZ   -1065.9025
 -----------------------------------------------------------------
Archival summary:
1\1\fermi.chem.uh.edu\SP\HF\6-31G**\12728\xunmo\SatMar107:23:042014SatMar107:23:042014\0\\#,HF,6-31G**,\\0,1\C\H,1,1.08997\C,1,1.53204,2,107.462\H,3,1.08795,1,110.002,2,-61.4529,0\H,3,1.08979,1,109.219,2,-177.89,0\C,3,1.53054,1,111.93,2,60.7502,0\H,6,1.08638,3,110.18,1,177.174,0\H,6,1.0883,3,109.185,1,-66.1806,0\C,1,1.53579,2,108.959,3,-121.155,0\H,9,1.08691,1,110.26,2,61.8217,0\H,9,1.08862,1,108.033,2,176.921,0\C,1,1.53626,2,106.736,3,118.809,0\H,12,1.0928,1,107.618,2,-178.769,0\C,12,1.53049,1,110.348,2,64.0668,0\H,14,1.08742,12,109.903,1,178.455,0\H,14,1.0889,12,109.535,1,-64.7875,0\C,14,1.52901,12,111.418,1,56.9147,0\H,17,1.08482,14,109.968,12,178.635,0\H,17,1.08871,14,108.85,12,62.6329,0\C,12,1.53196,1,110.946,2,-61.1527,0\H,20,1.08706,12,109.864,1,-177.861,0\H,20,1.08887,12,109.113,1,65.7577,0\C,6,1.53823,3,111.623,1,55.2327,0\H,23,1.08858,6,107.079,3,62.022,0\C,23,1.51863,6,112.459,3,179.146,0\C,25,1.3612,23,120.985,6,-116.856,0\H,26,1.07714,25,119.847,23,-0.0583363,0\C,26,1.42139,25,122.018,23,179.946,0\C,28,1.40667,26,119.102,25,0.00274985,0\C,29,1.41901,28,119.209,26,179.994,0\H,30,1.07648,29,118.929,28,-179.99,0\C,30,1.35875,29,120.678,28,0.00443845,0\H,32,1.07566,30,120.28,29,-179.997,0\C,32,1.41553,30,120.169,29,-0.00177705,0\H,34,1.07578,32,119.487,30,-179.997,0\C,34,1.35883,32,120.34,30,-0.00163146,0\H,36,1.07643,34,120.339,32,-179.995,0\C,29,1.42042,28,118.381,26,0,0\H,38,1.07658,29,118.889,28,179.978,0\C,38,1.35609,29,121.006,28,-0.00420384,0\H,40,1.07547,38,119.213,29,179.973,0\C,9,1.53992,1,114.608,2,-63.5436,0\H,42,1.0917,9,106.646,1,-166.136,0\C,42,1.51987,9,115.658,1,76.6566,0\C,44,1.44406,42,124.941,9,-0.0742788,0\H,45,1.07253,44,119.421,42,-1.83095,0\C,45,1.35659,44,122.145,42,177.922,0\H,47,1.07536,45,120.575,44,179.725,0\C,44,1.45396,42,118.415,9,174.267,0\H,49,1.07556,44,118.326,42,1.09452,0\C,49,1.35134,44,122.778,42,-178.182,0\H,51,1.07227,49,121.94,44,179.948,0\C,51,1.45481,49,119.858,44,0.324537,0\C,53,1.43996,51,120.545,49,-178.258,0\H,54,1.09186,53,116.398,51,-179.669,0\O,54,1.21108,53,123.285,51,0.306037,0\\HF=-1113.68575\\@

 Total job time:  3846.35s(wall), 3839.60s(cpu) 
 Sat Mar  1 07:23:04 2014

        *************************************************************
        *                                                           *
        *  Thank you very much for using Q-Chem.  Have a nice day.  *
        *                                                           *
        *************************************************************


0 sent ACK to 0 
now end server 0 ... 
cleanup process ... done
