
Running Job 1 of 4 INP/d26ea
qchem INP/d26ea_36367.0 /home/qchem_scratch/qchem36367/ 1
/home/QCHEM/bin/mpi/mpirun_qchem -machinefile /home/QCHEM/bin/mpi/machines -np 1 /home/QCHEM/exe/qcprog.exe INP/d26ea_36367.0 /home/qchem_scratch/qchem36367/

Process 0 of 1 is on fermi.chem.uh.edu - thread support 0
initial socket setup ...start
initial socket setup ...done 
now start server 0 ... 
                  Welcome to Q-Chem
     A Quantum Leap Into The Future Of Chemistry

 Y. Shao, L. Fusti-Molnar, Y. Jung, J. Kussmann, C. Ochsenfeld, S. T. Brown, 
 A. T. B. Gilbert, L. V. Slipchenko, S. V. Levchenko, D. P. O'Neill, 
 R. A. DiStasio Jr., R. C. Lochan, T. Wang, G. J. O. Beran, N. A. Besley, 
 J. M. Herbert, C. Y. Lin, T. Van Voorhis, S. H. Chien, A. Sodt, R. P. Steele, 
 V. A. Rassolov, P. E. Maslen, P. P. Korambath, R. D. Adamson, B. Austin, 
 J. Baker, E. F. C. Byrd, H. Dachsel, R. J. Doerksen, A. Dreuw, B. D. Dunietz, 
 A. D. Dutoi, T. R. Furlani, S. R. Gwaltney, A. Heyden, S. Hirata, C.-P. Hsu, 
 G. Kedziora, R. Z. Khaliullin, P. Klunzinger, A. M. Lee, M. S. Lee, W. Liang, 
 I. Lotan, N. Nair, B. Peters, E. I. Proynov, P. A. Pieniazek, Y. M. Rhee, 
 J. Ritchie, E. Rosta, C. D. Sherrill, A. C. Simmonett, J. E. Subotnik, 
 H. L. Woodcock III, W. Zhang, A. T. Bell, A. K. Chakraborty, D. M. Chipman, 
 F. J. Keil, A. Warshel, W. J. Hehre, H. F. Schaefer III, J. Kong, 
 A. I. Krylov, P. M. W. Gill, M. Head-Gordon

 Additional authors for Version 3.1: 
 Z. Gan, Y. Zhao, N. E. Schultz, D. Truhlar, E. Epifanovsky, M. Oana

 Additional authors for Version 3.2: 
 R. Baer, B. R. Brooks, D. Casanova, J.-D. Chai, C.-L. Cheng, C. Cramer, 
 D. Crittenden, A. Ghysels, G. Hawkins, E. G. Hohenstein, C. Kelley, 
 W. Kurlancheek, D. Liotard, E. Livshits, P. Manohar, A. Marenich, 
 D. Neuhauser, R. Olson, M. A. Rohrdanz, K. S. Thanthiriwatte, A. J. W. Thom, 
 V. Vanovschi, C. F. Williams, Q. Wu, Z.-Q. You

 Additional authors for Version 4.0: 
 A. Aspuru-Guzik, Y. Bernard, C. Chang, J. Deng, A. Dreuw, M. Diedenhofen, 
 R. G. Edgar, D. Ghosh, W. A. Goddard III, M. Goldey, L. D. Jacobson, 
 M. Gordon, B. Kaduk, I. Kaliman, K. Khistyaev, R. King, A. Klamt, 
 D. Kosenkov, T. Kus, D. Lambrecht, A. Landau, A. W. Lange, K. Lawler, F. Liu, 
 J. Liu, R. Olivares-Amaya, S. P. Mao, J. Parkhill, N. Russ, M. Schmidt, 
 N. Shenvi, D. Small, Y. C. Su, E. Sundstrom, L. Vogt, O. Vydrov, M. Watson, 
 M. Wormit, X. Xu, S. Yeganeh, I. Y. Zhang, D. Zuev

 Additional authors for Version 4.1: 
 X. Feng, M. W. D. Hanson-Heine, P. Horn, H. Ji, A. Laurent, R. Peverati, 
 N. Mardirossian, N. Sergueev, S. Sharada, P. Zimmerman

 Q-Chem, Version 4.1, Q-Chem, Inc., Pittsburgh, PA (2013).

 Parts of Q-Chem use Armadillo 3.6.2 (Piazza del Duomo).
 http://arma.sourceforge.net/

 Intel X86 Linux Version 4.1.2

 Q-chem begins on Fri Feb 28 08:30:07 2014  

Host: 
0

     Scratch files written to /home/qchem_scratch/qchem36367//
 Feb414 28838_zgan 2267   
 Parallel job on  1  processors
Processing $rem in /home/QCHEM/config/preferences.
 MEM_TOTAL  2000 
Finally everything over in PARseQInput

--------------------------------------------------------------
User input:
--------------------------------------------------------------
$comment
C1,3ea
$end
$molecule
0 1
C        -1.6702956458   -2.0997249069    1.6779178911
C        -0.3495380409   -1.3380447878    1.8271736008
C         0.5937713437   -1.5803065352    0.6445210775
C        -0.0930403651   -1.2414122027   -0.6882131576
C        -1.3971751934   -2.0309398593   -0.8461212527
C        -2.3946655161   -1.9011697156    0.3271627971
H        -0.5314206533   -0.2724467599    1.9356571189
H         0.1347111673   -1.6524541645    2.7489872010
H        -1.4524558591   -3.1623577808    1.7728008693
H        -2.3418040879   -1.8504617699    2.4942063068
H        -0.3244550288   -0.1767644091   -0.6853971670
H        -1.8904994104   -1.7527714191   -1.7734240257
H        -1.1378837034   -3.0853219866   -0.9394087190
H        -3.0747088754   -2.7416536085    0.2305970440
H         0.8305253751   -2.6471489118    0.6250816995
C         1.9115401107   -0.8132057378    0.7991123640
C         2.8735738825   -1.0591703937   -0.3792863895
C         2.1751889745   -0.7306688234   -1.7125885259
C         0.8577602928   -1.4943105170   -1.8630691454
H         1.6971060535    0.2517154133    0.8784073048
H         2.3974858799   -1.0989875007    1.7287825728
H         1.9781725155    0.3382826935   -1.7673864324
H         2.8398510773   -0.9648855288   -2.5395935841
H         0.3753270609   -1.2120005989   -2.7957647430
H         1.0654583598   -2.5619465329   -1.9332227921
H         3.0960300231   -2.1252819624   -0.3911525557
C         4.1884763279   -0.3327373363   -0.2159535283
C         5.4321247085   -1.0634739507   -0.1033893452
C         4.2644510603    1.1081053001   -0.1642106554
C         6.6257880760   -0.4390128492    0.0448503834
H         5.3979882429   -2.1385799965   -0.1398167907
C         5.4401006453    1.7643938441   -0.0168756779
H         3.3564074348    1.6785003101   -0.2456701760
C         6.6864484615    1.0121362045    0.0955491034
H         7.5374779991   -1.0034252148    0.1263435306
H         5.4922693500    2.8345106226    0.0209634417
C         7.9404658725    1.7000435068    0.2526099143
H         8.8317601359    1.0744653487    0.3301549066
O         8.0344499227    2.9073828225    0.2997681286
C        -4.6262194813   -0.8428866763    0.0092158459
C        -5.5329080876    0.2459840923   -0.0817932320
C        -3.2949495812   -0.6710471352    0.2530400621
C        -6.9171162651    0.0543744818   -0.3371002454
C        -5.0485092064    1.5551207785    0.0865672081
C        -2.8243059652    0.6646633324    0.4215417436
C        -7.7606030656    1.1159736273   -0.4182514105
H        -7.2893893307   -0.9473529305   -0.4659231454
C        -5.9520464074    2.6464102179   -0.0029683564
C        -3.6642918366    1.7282711357    0.3418982335
H        -1.7867797565    0.8468138388    0.6169942631
C        -7.2709197284    2.4341306717   -0.2485202496
H        -8.8073906412    0.9613133103   -0.6121459845
H        -5.5757234506    3.6465481268    0.1269326656
H        -3.2803728579    2.7253876977    0.4743723345
H        -7.9508889016    3.2649226246   -0.3153481779
H        -5.0209837532   -1.8363150307   -0.1213746741
$end


$rem
MEM_TOTAL	20000
MEM_STATIC	5000
JOBTYPE    freq 
SYMMETRY   FALSE
EXCHANGE     	HF
CORRELATION  	none  (built-in)
BASIS       	6-31g** 
cis_state_deriv   1
cis_n_roots       3
cis_singlets      false
cis_triplets      true
max_scf_cycles=100
max_cis_cycles=100
$end

--------------------------------------------------------------
 ----------------------------------------------------------------
             Standard Nuclear Orientation (Angstroms)
    I     Atom           X                Y                Z
 ----------------------------------------------------------------
    1      C      -1.6702999562    -2.0997459203     1.6778911470
    2      C      -0.3495411428    -1.3380699516     1.8271573418
    3      C       0.5937682630    -1.5803177144     0.6445019708
    4      C      -0.0930424081    -1.2414047235    -0.6882280544
    5      C      -1.3971784880    -2.0309281435    -0.8461469947
    6      C      -2.3946690150    -1.9011717715     0.3271384046
    7      H      -0.5314220285    -0.2724730486     1.9356548036
    8      H       0.1347072152    -1.6524922490     2.7489669817
    9      H      -1.4524619640    -3.1623804023     1.7727602334
   10      H      -2.3418082770    -1.8504924019     2.4941825996
   11      H      -0.3244553089    -0.1767565837    -0.6853981503
   12      H      -1.8905019128    -1.7527466955    -1.7734462870
   13      H      -1.1378887116    -3.0853094739    -0.9394482296
   14      H      -3.0747137322    -2.7416532682     0.2305613593
   15      H       0.8305205339    -2.6471602276     0.6250486524
   16      C       1.9115382457    -0.8132211326     0.7991038126
   17      C       2.8735720311    -1.0591718908    -0.3792978306
   18      C       2.1751881437    -0.7306516355    -1.7125958978
   19      C       0.8577582506    -1.4942891681    -1.8630870270
   20      H       1.6971059245     0.2516993313     0.8784126765
   21      H       2.3974832093    -1.0990159222     1.7287704380
   22      H       1.9781734753     0.3383009281    -1.7673798220
   23      H       2.8398501539    -0.9648585701    -2.5396037975
   24      H       0.3753258197    -1.2119661893    -2.7957790856
   25      H       1.0654545738    -2.5619246058    -1.9332546349
   26      H       3.0960264096    -2.1252836720    -0.3911779327
   27      C       4.1884756216    -0.3327431592    -0.2159549497
   28      C       5.4321227513    -1.0634833138    -0.1033999287
   29      C       4.2644527227     1.1080986710    -0.1641931080
   30      C       6.6257871005    -0.4390261387     0.0448484356
   31      H       5.3979845176    -2.1385888240    -0.1398415201
   32      C       5.4401033424     1.7643833302    -0.0168490827
   33      H       3.3564100713     1.6784962563    -0.2456454544
   34      C       6.6864498721     1.0121221478     0.0955662545
   35      H       7.5374760593    -1.0034410861     0.1263344887
   36      H       5.4922738065     2.8344995248     0.0210041235
   37      C       7.9404683667     1.7000253077     0.2526365568
   38      H       8.8317615659     1.0744446535     0.3301736435
   39      O       8.0344544003     2.9073638476     0.2998106767
   40      C      -4.6262211132    -0.8428808553     0.0092045686
   41      C      -5.5329078830     0.2459926118    -0.0817905187
   42      C      -3.2949510155    -0.6710467252     0.2530315194
   43      C      -6.9171162867     0.0543886510    -0.3371005456
   44      C      -5.0485068930     1.5551262820     0.0865873047
   45      C      -2.8243052468     0.6646607474     0.4215509287
   46      C      -7.7606012994     1.1159902607    -0.4182380560
   47      H      -7.2893909659    -0.9473364509    -0.4659367475
   48      C      -5.9520422540     2.6464183954    -0.0029342362
   49      C      -3.6642893276     1.7282709893     0.3419211009
   50      H      -1.7867788061     0.8468069653     0.6170062134
   51      C      -7.2709158390     2.4341442624    -0.2484893913
   52      H      -8.8073890620     0.9613342270    -0.6121350372
   53      H      -5.5757176866     3.6465539730     0.1269800683
   54      H      -3.2803687442     2.7253851736     0.4744084474
   55      H      -7.9508836118     3.2649382203    -0.3153066407
   56      H      -5.0209869843    -1.8363068388    -0.1213991523
 ----------------------------------------------------------------
 Molecular Point Group                 C1    NOp =  1
 Largest Abelian Subgroup              C1    NOp =  1
 Nuclear Repulsion Energy =  2348.4220402584 hartrees
 There are       99 alpha and       99 beta electrons
 Requested basis set is 6-31G(d,p)
 There are 196 shells and 560 basis functions

Total QAlloc Memory Limit  20000 MB
Mega-Array Size      4888 MB
MEM_STATIC part      5000 MB
 A cutoff of  1.0D-11 yielded   9210 shell pairs
 There are     75276 function pairs
 Smallest overlap matrix eigenvalue = 2.64E-04
 Guess from superposition of atomic densities
 Warning:  Energy on first SCF cycle will be non-variational
 A restricted Hartree-Fock SCF calculation will be
 performed using Pulay DIIS extrapolation
 SCF converges when DIIS error is below 1.0E-08
 ---------------------------------------
  Cycle       Energy         DIIS Error
 ---------------------------------------
    1   -1125.9641495280      3.35E-02
    2   -1113.3222836090      2.58E-03
    3   -1113.6196311361      1.34E-03
    4   -1113.6725864488      5.42E-04
    5   -1113.6840507843      6.13E-05
    6   -1113.6842936983      3.00E-05
    7   -1113.6843630757      1.33E-05
    8   -1113.6843815957      6.03E-06
    9   -1113.6843859327      1.81E-06
   10   -1113.6843863719      7.86E-07
   11   -1113.6843864650      3.92E-07
   12   -1113.6843864975      1.72E-07
   13   -1113.6843865041      6.95E-08
   14   -1113.6843865043      2.08E-08
   15   -1113.6843865034      6.59E-09 Convergence criterion met
 ---------------------------------------
 SCF time:  CPU 707.20 s  wall 712.78 s
 SCF   energy in the final basis set = -1113.6843865034
 Total energy in the final basis set = -1113.6843865034
 Direct RCIS calculation will be performed
 Triplet excitation energies requested
 CIS energy converged when residual is below 10e- 6
 ---------------------------------------------------
 Iter    Rts Conv    Rts Left    Ttl Dev     Max Dev
 ---------------------------------------------------
   1         0           3      0.000431    0.000365
   2         0           3      0.000163    0.000134
   3         0           3      0.000682    0.000340
   4         0           3      0.000286    0.000172
   5         0           3      0.000223    0.000106
   6         0           3      0.000195    0.000132
   7         0           3      0.000119    0.000090
   8         1           2      0.000053    0.000045
   9         1           2      0.000027    0.000024
  10         1           2      0.000018    0.000016
  11         2           1      0.000018    0.000017
  12         2           1      0.000017    0.000016
  13         2           1      0.000020    0.000019
  14         2           1      0.000030    0.000029
  15         2           1      0.000055    0.000054
  16         2           1      0.000118    0.000117
  17         2           1      0.000058    0.000057
  18         2           1      0.000025    0.000024
  19         2           1      0.000011    0.000010
  20         2           1      0.000007    0.000006
  21         2           1      0.000006    0.000005
  22         2           1      0.000006    0.000005
  23         2           1      0.000010    0.000009
  24         2           1      0.000034    0.000033
  25         2           1      0.000067    0.000066
  26         2           1      0.000025    0.000024
  27         2           1      0.000012    0.000011
  28         2           1      0.000009    0.000008
  29         2           1      0.000006    0.000005
  30         2           1      0.000003    0.000002
  31         3           0      0.000001    0.000001    Roots Converged
 ---------------------------------------------------
 
 
 ---------------------------------------------------
               CIS Excitation Energies              
 ---------------------------------------------------

 Excited state   1: excitation energy (eV) =    2.5577
    Total energy for state   1:  -1113.590392620227
    Multiplicity: Triplet 
    Trans. Mom.:  0.0000 X   0.0000 Y   0.0000 Z
    Strength   :  0.0000
    D( 96) --> V(  4) amplitude =  0.2878
    D( 97) --> V(  1) amplitude =  0.8962

 Excited state   2: excitation energy (eV) =    2.7700
    Total energy for state   2:  -1113.582589182564
    Multiplicity: Triplet 
    Trans. Mom.:  0.0000 X   0.0000 Y   0.0000 Z
    Strength   :  0.0000
    D( 95) --> V(  5) amplitude = -0.3222
    D( 98) --> V(  3) amplitude = -0.3679
    D( 99) --> V(  2) amplitude =  0.8066

 Excited state   3: excitation energy (eV) =    4.0944
    Total energy for state   3:  -1113.533919883839
    Multiplicity: Triplet 
    Trans. Mom.:  0.0000 X   0.0000 Y   0.0000 Z
    Strength   :  0.0000
    D( 92) --> V(  1) amplitude =  0.3315
    D( 92) --> V(  8) amplitude =  0.2255
    D( 93) --> V(  1) amplitude =  0.7244
    D( 93) --> V(  8) amplitude =  0.4901
 
 ---------------------------------------------------
 Calculating Relaxed Density
 ---------------------------------------------------
 Iter    Rts Conv    Rts Left    Ttl Dev     Max Dev
 ---------------------------------------------------
   1         0           3      0.000371    0.000183
   2         0           3      0.000120    0.000054
   3         0           3      0.000059    0.000027
   4         0           3      0.000019    0.000009
   5         0           3      0.000006    0.000003
   6         3           0      0.000000    0.000000    Roots Converged
 ---------------------------------------------------
  Timing summary (seconds)
  CPU time       4439.21s
  System time       0.00s
  Wall time      4451.08s
 STSman time:  CPU 0.00 s  wall 0.00 s

 Analysis of SCF Wavefunction
 
 --------------------------------------------------------------
                    Orbital Energies (a.u.)
 --------------------------------------------------------------
 
 Alpha MOs
 -- Occupied --
-20.547 -11.322 -11.271 -11.259 -11.252 -11.247 -11.243 -11.242
-11.241 -11.238 -11.238 -11.236 -11.233 -11.233 -11.232 -11.232
-11.230 -11.230 -11.229 -11.227 -11.227 -11.226 -11.226 -11.225
-11.222 -11.221 -11.220 -11.220  -1.377  -1.178  -1.163  -1.146
 -1.118  -1.090  -1.053  -1.047  -1.036  -1.034  -1.006  -0.993
 -0.984  -0.965  -0.900  -0.862  -0.851  -0.845  -0.835  -0.820
 -0.812  -0.809  -0.780  -0.768  -0.755  -0.703  -0.702  -0.690
 -0.666  -0.663  -0.649  -0.639  -0.633  -0.622  -0.621  -0.610
 -0.604  -0.600  -0.597  -0.593  -0.591  -0.578  -0.577  -0.573
 -0.562  -0.542  -0.536  -0.529  -0.528  -0.522  -0.509  -0.506
 -0.504  -0.497  -0.495  -0.483  -0.477  -0.476  -0.470  -0.466
 -0.457  -0.443  -0.438  -0.417  -0.416  -0.413  -0.378  -0.355
 -0.316  -0.311  -0.286
 -- Virtual --
  0.071   0.101   0.130   0.141   0.189   0.213   0.218   0.220
  0.232   0.241   0.247   0.250   0.256   0.266   0.274   0.280
  0.282   0.289   0.297   0.304   0.307   0.311   0.320   0.322
  0.325   0.327   0.333   0.334   0.340   0.343   0.349   0.350
  0.353   0.363   0.374   0.383   0.386   0.396   0.409   0.410
  0.421   0.425   0.426   0.431   0.444   0.448   0.456   0.462
  0.471   0.480   0.481   0.488   0.494   0.511   0.514   0.520
  0.522   0.536   0.541   0.545   0.566   0.576   0.594   0.661
  0.692   0.694   0.710   0.713   0.720   0.724   0.729   0.732
  0.735   0.737   0.744   0.746   0.751   0.754   0.757   0.767
  0.780   0.787   0.790   0.793   0.797   0.798   0.802   0.806
  0.813   0.822   0.824   0.831   0.838   0.843   0.847   0.853
  0.862   0.864   0.873   0.880   0.882   0.894   0.905   0.911
  0.916   0.926   0.931   0.936   0.943   0.947   0.956   0.971
  0.977   0.982   0.990   0.995   1.002   1.017   1.026   1.031
  1.038   1.044   1.046   1.057   1.064   1.071   1.072   1.079
  1.080   1.082   1.085   1.088   1.091   1.095   1.097   1.104
  1.106   1.119   1.122   1.126   1.131   1.136   1.137   1.149
  1.156   1.165   1.171   1.175   1.183   1.186   1.190   1.200
  1.203   1.208   1.213   1.215   1.219   1.224   1.228   1.231
  1.232   1.236   1.246   1.258   1.262   1.278   1.285   1.307
  1.308   1.319   1.331   1.341   1.358   1.372   1.382   1.392
  1.399   1.411   1.417   1.438   1.447   1.457   1.467   1.486
  1.497   1.503   1.506   1.511   1.538   1.548   1.558   1.570
  1.584   1.596   1.605   1.615   1.620   1.632   1.652   1.653
  1.655   1.660   1.664   1.678   1.690   1.694   1.705   1.708
  1.716   1.725   1.726   1.731   1.758   1.768   1.778   1.797
  1.802   1.816   1.826   1.834   1.867   1.886   1.903   1.922
  1.941   1.961   1.979   2.004   2.020   2.036   2.038   2.043
  2.050   2.054   2.058   2.087   2.100   2.107   2.110   2.111
  2.117   2.130   2.132   2.141   2.144   2.151   2.170   2.171
  2.180   2.186   2.192   2.194   2.199   2.204   2.208   2.223
  2.225   2.229   2.231   2.237   2.239   2.245   2.252   2.259
  2.273   2.279   2.282   2.289   2.302   2.302   2.310   2.318
  2.339   2.340   2.347   2.366   2.370   2.374   2.384   2.400
  2.404   2.411   2.423   2.439   2.450   2.452   2.461   2.466
  2.477   2.490   2.492   2.506   2.508   2.520   2.525   2.533
  2.548   2.555   2.559   2.568   2.577   2.588   2.597   2.601
  2.608   2.632   2.635   2.641   2.654   2.660   2.667   2.670
  2.673   2.687   2.701   2.707   2.711   2.713   2.716   2.732
  2.736   2.744   2.752   2.756   2.761   2.772   2.773   2.774
  2.788   2.792   2.799   2.806   2.829   2.838   2.842   2.843
  2.855   2.866   2.870   2.877   2.890   2.900   2.902   2.908
  2.920   2.922   2.925   2.932   2.944   2.951   2.954   2.960
  2.975   2.985   2.988   2.995   3.009   3.011   3.022   3.031
  3.043   3.046   3.055   3.067   3.075   3.081   3.090   3.105
  3.115   3.139   3.144   3.158   3.164   3.165   3.172   3.186
  3.191   3.199   3.207   3.213   3.224   3.229   3.234   3.237
  3.270   3.280   3.290   3.301   3.306   3.335   3.343   3.354
  3.362   3.375   3.397   3.407   3.433   3.441   3.483   3.523
  3.533   3.559   3.601   3.631   3.632   3.638   3.661   3.664
  3.673   3.695   3.701   3.711   3.731   3.742   3.747   3.777
  3.791   3.805   3.816   3.827   3.872   3.887   3.888   3.891
  3.907   3.919   3.925   3.930   3.969   3.993   4.169   4.202
  4.317   4.363   4.526   4.547   4.572   4.574   4.585   4.608
  4.617   4.633   4.708   4.748   4.778   4.815   4.831   4.849
  4.867   4.898   4.931   4.942   4.979   5.097   5.135   5.194
  5.222   5.258   5.281   5.302   5.387
 --------------------------------------------------------------
 
          Ground-State Mulliken Net Atomic Charges

     Atom                 Charge (a.u.)
  ----------------------------------------
      1 C                    -0.208723
      2 C                    -0.208171
      3 C                    -0.128625
      4 C                    -0.127065
      5 C                    -0.189497
      6 C                    -0.165308
      7 H                     0.107134
      8 H                     0.116368
      9 H                     0.111254
     10 H                     0.126361
     11 H                     0.109286
     12 H                     0.123890
     13 H                     0.107302
     14 H                     0.128059
     15 H                     0.104854
     16 C                    -0.183988
     17 C                    -0.165415
     18 C                    -0.201952
     19 C                    -0.209343
     20 H                     0.106613
     21 H                     0.123525
     22 H                     0.111205
     23 H                     0.124997
     24 H                     0.120361
     25 H                     0.106294
     26 H                     0.125214
     27 C                     0.026663
     28 C                    -0.174518
     29 C                    -0.153865
     30 C                    -0.109070
     31 H                     0.150857
     32 C                    -0.086438
     33 H                     0.153181
     34 C                    -0.180356
     35 H                     0.164929
     36 H                     0.197235
     37 C                     0.396324
     38 H                     0.106855
     39 O                    -0.539642
     40 C                    -0.164568
     41 C                    -0.024599
     42 C                     0.021540
     43 C                    -0.127453
     44 C                    -0.040555
     45 C                    -0.153235
     46 C                    -0.157829
     47 H                     0.150744
     48 C                    -0.124381
     49 C                    -0.127915
     50 H                     0.141561
     51 C                    -0.160291
     52 H                     0.150295
     53 H                     0.151665
     54 H                     0.152086
     55 H                     0.150281
     56 H                     0.145870
  ----------------------------------------
  Sum of atomic charges =     0.000000

 -----------------------------------------------------------------
                    Cartesian Multipole Moments
 -----------------------------------------------------------------
    Charge (ESU x 10^10)
                 0.0000
    Dipole Moment (Debye)
         X      -2.4744      Y      -3.9096      Z      -0.3466
       Tot       4.6398
    Quadrupole Moments (Debye-Ang)
        XX    -185.2654     XY     -30.3057     YY    -166.9968
        XZ       0.4773     YZ      -0.6293     ZZ    -173.5449
    Octopole Moments (Debye-Ang^2)
       XXX    -251.1153    XXY    -241.2973    XYY    -112.0894
       YYY     -18.7693    XXZ     -31.5367    XYZ     -11.2915
       YYZ      -2.1672    XZZ      25.6342    YZZ      -4.6271
       ZZZ       1.7568
    Hexadecapole Moments (Debye-Ang^3)
      XXXX  -22894.9475   XXXY   -2091.1398   XXYY   -4773.8718
      XYYY    -370.3128   YYYY   -2600.1888   XXXZ     159.1129
      XXYZ     -80.0077   XYYZ     -35.5671   YYYZ      -6.3118
      XXZZ   -4180.7021   XYZZ      59.4183   YYZZ    -607.8514
      XZZZ       5.1185   YZZZ       1.4941   ZZZZ    -913.0363
 -----------------------------------------------------------------
 Calculating MO derivatives via CPSCF
   1         3         168      0.154767    0.017980
   2         3         168      0.031101    0.004554
   3         3         168      0.006046    0.001122
   4        25         146      0.000842    0.000162
   5       158          13      0.000049    0.000018
   6       169           2      0.000004    0.000002
   7       171           0      0.000000    0.000000    Roots Converged
 Calculating CIS amplitude derivatives via CPCIS
 CIS relaxed dipole moment
            1
    1   0.2363523
    2   0.1202461
    3   0.0229120
	Magnitude:	 0.266 au	 0.677 Debye
 CIS Excitation Energy is    0.0939938831
 Gradient of the CIS Excitation Energy
            1           2           3           4           5           6
    1   0.0000355   0.0002322   0.0003650  -0.0000685   0.0000118  -0.0000283
    2  -0.0000929   0.0002209  -0.0005707   0.0001321  -0.0000739   0.0000560
    3  -0.0001194   0.0001910  -0.0006288  -0.0000014  -0.0000085   0.0000092
            7           8           9          10          11          12
    1   0.0000022  -0.0000111   0.0000037   0.0000711   0.0000061   0.0000231
    2  -0.0000217   0.0000076   0.0000122   0.0000285  -0.0000270   0.0000111
    3  -0.0000042  -0.0000246   0.0000142  -0.0000184   0.0000053   0.0000174
           13          14          15          16          17          18
    1   0.0000060   0.0000379  -0.0000551   0.0009600  -0.0035407   0.0010510
    2   0.0000040   0.0000034   0.0000093   0.0012885  -0.0031182   0.0013113
    3  -0.0000077  -0.0000059   0.0000116   0.0008819  -0.0004794  -0.0005908
           19          20          21          22          23          24
    1   0.0002853   0.0002060  -0.0000166   0.0001818  -0.0000344   0.0003158
    2  -0.0005491  -0.0002651   0.0000849  -0.0002709   0.0000757   0.0001315
    3   0.0006077  -0.0000923  -0.0000918   0.0001182   0.0000858   0.0000825
           25          26          27          28          29          30
    1  -0.0000568   0.0003825   0.0469720  -0.0617482  -0.0239073   0.0191640
    2   0.0000196   0.0005683   0.0195392   0.0058675  -0.0465635   0.0712379
    3  -0.0000375   0.0000615   0.0057461  -0.0065266  -0.0040110   0.0042386
           31          32          33          34          35          36
    1  -0.0011059   0.0652653  -0.0006709  -0.0633154   0.0006203   0.0000991
    2  -0.0001284  -0.0250558  -0.0006078  -0.0364288  -0.0006578   0.0009639
    3  -0.0001206   0.0063022  -0.0000852  -0.0079808   0.0000541   0.0000487
           37          38          39          40          41          42
    1   0.0142235   0.0013856   0.0026402   0.0000173  -0.0000074  -0.0000245
    2   0.0420242  -0.0006949  -0.0284829  -0.0000276   0.0000158   0.0000473
    3   0.0028159   0.0001291  -0.0005803  -0.0000017   0.0000019  -0.0000085
           43          44          45          46          47          48
    1  -0.0000001  -0.0000006  -0.0000050   0.0000034  -0.0000007   0.0000068
    2  -0.0000205  -0.0000183  -0.0000397  -0.0000072   0.0000045   0.0000220
    3  -0.0000023  -0.0000001  -0.0000119  -0.0000003   0.0000008   0.0000016
           49          50          51          52          53          54
    1   0.0000059   0.0000069   0.0000098   0.0000059  -0.0000030  -0.0000019
    2   0.0000201   0.0000265   0.0000005  -0.0000004  -0.0000044  -0.0000045
    3  -0.0000005   0.0000105   0.0000013   0.0000013  -0.0000001   0.0000009
           55          56
    1   0.0000050  -0.0000054
    2  -0.0000040   0.0000017
    3   0.0000009   0.0000002
gradient:-0.000033
gradient:0.000093
gradient:0.000119
gradient:-0.000227
gradient:-0.000223
gradient:-0.000201
gradient:-0.000364
gradient:0.000574
gradient:0.000635
gradient:0.000072
gradient:-0.000134
gradient:-0.000000
gradient:-0.000002
gradient:0.000079
gradient:0.000009
gradient:0.000031
gradient:-0.000054
gradient:-0.000008
gradient:-0.000002
gradient:0.000022
gradient:0.000003
gradient:0.000012
gradient:-0.000007
gradient:0.000025
gradient:-0.000003
gradient:-0.000013
gradient:-0.000015
gradient:-0.000072
gradient:-0.000028
gradient:0.000020
gradient:-0.000004
gradient:0.000025
gradient:-0.000005
gradient:-0.000023
gradient:-0.000011
gradient:-0.000018
gradient:-0.000005
gradient:-0.000003
gradient:0.000008
gradient:-0.000039
gradient:-0.000004
gradient:0.000006
gradient:0.000055
gradient:-0.000004
gradient:-0.000013
gradient:-0.000959
gradient:-0.001296
gradient:-0.000889
gradient:0.003499
gradient:0.003120
gradient:0.000474
gradient:-0.001054
gradient:-0.001319
gradient:0.000599
gradient:-0.000281
gradient:0.000552
gradient:-0.000604
gradient:-0.000209
gradient:0.000264
gradient:0.000091
gradient:0.000011
gradient:-0.000084
gradient:0.000087
gradient:-0.000185
gradient:0.000270
gradient:-0.000117
gradient:0.000028
gradient:-0.000075
gradient:-0.000082
gradient:-0.000315
gradient:-0.000131
gradient:-0.000080
gradient:0.000057
gradient:-0.000016
gradient:0.000040
gradient:-0.000386
gradient:-0.000570
gradient:-0.000062
gradient:-0.046900
gradient:-0.019556
gradient:-0.005739
gradient:0.061680
gradient:-0.005846
gradient:0.006520
gradient:0.023941
gradient:0.046568
gradient:0.004015
gradient:-0.019137
gradient:-0.071191
gradient:-0.004234
gradient:0.001115
gradient:0.000118
gradient:0.000121
gradient:-0.065278
gradient:0.025033
gradient:-0.006304
gradient:0.000683
gradient:0.000611
gradient:0.000087
gradient:0.063202
gradient:0.036361
gradient:0.007966
gradient:-0.000611
gradient:0.000651
gradient:-0.000053
gradient:-0.000100
gradient:-0.000950
gradient:-0.000048
gradient:-0.014167
gradient:-0.042031
gradient:-0.002810
gradient:-0.001380
gradient:0.000678
gradient:-0.000129
gradient:-0.002638
gradient:0.028542
gradient:0.000582
gradient:-0.000014
gradient:0.000028
gradient:0.000002
gradient:0.000007
gradient:-0.000014
gradient:-0.000002
gradient:0.000021
gradient:-0.000050
gradient:0.000008
gradient:0.000003
gradient:0.000020
gradient:0.000003
gradient:-0.000001
gradient:0.000017
gradient:-0.000000
gradient:0.000005
gradient:0.000039
gradient:0.000012
gradient:-0.000004
gradient:0.000006
gradient:0.000000
gradient:0.000001
gradient:-0.000004
gradient:-0.000001
gradient:-0.000005
gradient:-0.000022
gradient:-0.000001
gradient:-0.000005
gradient:-0.000020
gradient:0.000001
gradient:-0.000008
gradient:-0.000027
gradient:-0.000011
gradient:-0.000010
gradient:0.000000
gradient:-0.000001
gradient:-0.000007
gradient:0.000000
gradient:-0.000002
gradient:0.000003
gradient:0.000005
gradient:0.000000
gradient:0.000002
gradient:0.000006
gradient:-0.000001
gradient:-0.000006
gradient:0.000005
gradient:-0.000001
gradient:0.000005
gradient:-0.000000
gradient:-0.000000
gradient:0.237068
gradient:0.120034
gradient:0.022952
   1        76          95      0.013986    0.002802
   2       106          65      0.002561    0.000404
   3       129          42      0.000510    0.000056
   4       145          26      0.000105    0.000012
   5       162           9      0.000015    0.000002
   6       171           0      0.000000    0.000000    Roots Converged
 CPCIS time:  CPU 13491.86 s  wall 13539.10 s
 transition dipole derivative
            1           2           3
    1  -0.0019652  -0.0005649   0.0000624
    2  -0.0050088  -0.0038195   0.0007067
    3  -0.0044350  -0.0027737   0.0011350
    4   0.0049716   0.0044542  -0.0016632
    5   0.0095987   0.0043953  -0.0025014
    6   0.0099762   0.0060983  -0.0038832
    7  -0.0179169  -0.0129900  -0.0024386
    8  -0.0240537  -0.0064683   0.0054445
    9  -0.0194010  -0.0132075   0.0095840
   10  -0.0004423  -0.0005156  -0.0004841
   11   0.0045669   0.0026994   0.0005012
   12  -0.0003058   0.0000775   0.0022379
   13  -0.0000191  -0.0004058   0.0000242
   14  -0.0024597  -0.0024409  -0.0002809
   15  -0.0000536  -0.0002762  -0.0007949
   16  -0.0014442  -0.0008946   0.0001521
   17   0.0022583   0.0014123   0.0003297
   18   0.0004289   0.0004658   0.0004441
   19  -0.0000742  -0.0007396   0.0001119
   20  -0.0014614   0.0000257   0.0001704
   21  -0.0002839  -0.0002428   0.0000299
   22  -0.0005535  -0.0001970   0.0001613
   23   0.0000073  -0.0000410  -0.0000375
   24  -0.0003605  -0.0013261   0.0002274
   25   0.0002557   0.0001631   0.0000206
   26   0.0002495   0.0008384  -0.0000754
   27   0.0006359   0.0004889   0.0000382
   28   0.0022650   0.0019838  -0.0001418
   29   0.0011497   0.0006112  -0.0002383
   30  -0.0003491  -0.0004674  -0.0003950
   31   0.0002379  -0.0010760   0.0000137
   32  -0.0012361   0.0003873  -0.0001149
   33   0.0001707   0.0002192  -0.0002714
   34   0.0009674   0.0008719  -0.0001912
   35   0.0004179   0.0003123  -0.0000696
   36   0.0009366   0.0005084  -0.0000023
   37   0.0003270   0.0002558   0.0000289
   38  -0.0002029   0.0005406  -0.0000193
   39  -0.0003784  -0.0002117  -0.0000025
   40   0.0014544   0.0013417   0.0002139
   41   0.0001028   0.0002853   0.0000222
   42  -0.0000991  -0.0002039  -0.0001857
   43  -0.0004750   0.0041917   0.0004185
   44   0.0002178   0.0061149  -0.0003732
   45   0.0005529   0.0008781  -0.0000495
   46  -0.0708897   0.0162713   0.0067059
   47   0.0435557   0.0258465  -0.0144392
   48   0.0969109   0.0313691  -0.0689839
   49   0.3880616   0.1005420   0.0150120
   50   0.0683883   0.0167537  -0.0007737
   51   0.0128907   0.0022359   0.2612666
   52  -0.0528402   0.0202917  -0.0033590
   53   0.0432196   0.0251039   0.0294627
   54  -0.0891298  -0.0204399  -0.0891811
   55  -0.0168025  -0.0135586  -0.0021208
   56  -0.0209073  -0.0053230  -0.0100796
   57   0.0112909   0.0075745   0.0130271
   58   0.0098634  -0.0239638  -0.0012038
   59  -0.0109830   0.0129724   0.0021070
   60  -0.0063527   0.0111899   0.0030755
   61  -0.0075546   0.0020861  -0.0032185
   62  -0.0000364  -0.0041518  -0.0025760
   63  -0.0044868  -0.0091038   0.0045166
   64   0.0080488  -0.0210587   0.0010732
   65  -0.0106903   0.0141856  -0.0038448
   66   0.0068224  -0.0151113   0.0038738
   67  -0.0082699   0.0001718   0.0006028
   68  -0.0006352  -0.0049215   0.0018928
   69   0.0021518   0.0084090   0.0060977
   70   0.0043147   0.0049110   0.0025954
   71   0.0043523   0.0015309   0.0028715
   72  -0.0023963   0.0011940  -0.0029959
   73  -0.0005314   0.0044341  -0.0002486
   74   0.0006421   0.0061017   0.0008164
   75  -0.0011138   0.0001932  -0.0002910
   76  -0.0144691   0.0267644  -0.0004551
   77  -0.0148862   0.0393933  -0.0003464
   78  -0.0016669   0.0043513  -0.0010210
   79  -1.9996754   1.2127903  -0.0749377
   80   0.8290028  -3.2895354   0.0197316
   81  -0.0887260   0.0608841  -0.9571165
   82   3.1463158  -0.6823794   0.2522425
   83   0.1422039   1.2883286   0.0358081
   84   0.2787324  -0.0537907   0.6481799
   85   1.6444787   1.2279775   0.1473752
   86   0.6571259   2.7290349   0.1344537
   87   0.1304524   0.1970985   0.6446976
   88  -1.8847730  -0.8781109  -0.1592801
   89  -0.8130250  -2.3093594  -0.1380888
   90  -0.1576441  -0.1453744  -0.6785972
   91   0.0116524  -0.0321352   0.0090858
   92  -0.0085661  -0.0215336   0.0009080
   93   0.0097420  -0.0015430  -0.0802505
   94  -2.7376448  -0.2770947  -0.2328483
   95  -0.2124413  -1.4717575  -0.0472789
   96  -0.2311864  -0.0545402  -0.6909570
   97  -0.0212120   0.0133142   0.0064804
   98   0.0031364   0.0133025   0.0030344
   99   0.0062385   0.0039808  -0.0759853
  100   2.0506380   0.0816436   0.1275752
  101  -0.3199503   3.0419643   0.0304205
  102   0.1154463   0.0741155   0.9132577
  103   0.0131197  -0.0194660  -0.0087170
  104  -0.0164333   0.0243543  -0.0036980
  105  -0.0086565  -0.0042110   0.0869441
  106   0.0059910  -0.0135506  -0.0090543
  107  -0.0068805   0.0437879  -0.0019893
  108  -0.0090138  -0.0025674   0.0845917
  109  -0.6212947  -0.8350801  -0.0604133
  110  -0.8003630  -1.9494539  -0.1375690
  111  -0.0595096  -0.1410815  -0.3084166
  112  -0.0131636  -0.0240432  -0.0070426
  113  -0.0263696   0.0364553  -0.0030807
  114  -0.0070365  -0.0028216   0.0437413
  115   0.1784601   0.1132851  -0.0022098
  116   0.4859066   1.7315357   0.0987512
  117   0.0092940   0.0581674   0.2325334
  118   0.0005964   0.0004370   0.0000693
  119  -0.0011792  -0.0005908  -0.0001117
  120  -0.0000909  -0.0000700  -0.0000102
  121  -0.0003205  -0.0001460  -0.0000402
  122   0.0005675   0.0005310   0.0000603
  123   0.0000370   0.0000848   0.0000203
  124  -0.0009713  -0.0002133  -0.0000828
  125   0.0022663   0.0009726   0.0002112
  126  -0.0001748  -0.0002788  -0.0001159
  127  -0.0001592  -0.0000820  -0.0000161
  128  -0.0007989  -0.0007135  -0.0000881
  129  -0.0001122  -0.0001027   0.0000008
  130   0.0000671  -0.0001647  -0.0000083
  131  -0.0009042  -0.0001526  -0.0000748
  132  -0.0000112   0.0000060  -0.0000152
  133  -0.0001124  -0.0009260  -0.0000136
  134  -0.0018184  -0.0008770  -0.0001753
  135  -0.0004090  -0.0006284  -0.0001282
  136   0.0001797   0.0001004   0.0000214
  137  -0.0003227  -0.0001547  -0.0000310
  138  -0.0000007  -0.0000164  -0.0000307
  139  -0.0000930   0.0000097  -0.0000089
  140   0.0001364   0.0002179   0.0000182
  141   0.0000237   0.0000485   0.0000019
  142   0.0002527   0.0002353   0.0000278
  143   0.0010651   0.0005703   0.0001063
  144   0.0000902   0.0000067   0.0000232
  145   0.0002822   0.0001637   0.0000265
  146   0.0011293   0.0002434   0.0001024
  147   0.0000409  -0.0001459  -0.0000042
  148   0.0002728   0.0003034   0.0000396
  149   0.0012735   0.0003703   0.0000968
  150   0.0003753   0.0005339   0.0001071
  151   0.0004301   0.0003075   0.0000423
  152  -0.0000362   0.0000146   0.0000010
  153   0.0000613   0.0000152   0.0000106
  154   0.0002979   0.0003332   0.0000367
  155   0.0000024   0.0000220   0.0000013
  156   0.0000603   0.0000791   0.0000135
  157  -0.0001182  -0.0001575  -0.0000165
  158  -0.0002576  -0.0000316  -0.0000229
  159  -0.0000241   0.0000380  -0.0000001
  160  -0.0000205  -0.0002780  -0.0000116
  161  -0.0003490   0.0001843  -0.0000200
  162   0.0000006   0.0001257   0.0000068
  163   0.0002839   0.0001846   0.0000314
  164  -0.0002399  -0.0002071  -0.0000286
  165   0.0000420   0.0000459   0.0000045
  166  -0.0002791  -0.0000281  -0.0000251
  167  -0.0000469   0.0001325  -0.0000023
  168   0.0000036   0.0000530  -0.0000030
mem use when entering cis_hess,0,625000000
mem use when entering PV,0,625000000
mem use when entering PT + WS,0,625000000
mem use when entering II^xy,0,625000000
mem use when entering PCM,0,625000000
mem use when entering E^xy,0,625000000
mem use when entering PF,0,625000000
mem use when entering ws,0,625000000
mem use when entering RPA_Hess_IIx,0,625000000
Nshell = 196 
s2Bra.ftnCode() = 360011 
 hess cis_hess_iirx
            1           2           3           4           5           6
    1  -0.0002823  -0.0000422   0.0001565   0.0000230  -0.0000623  -0.0001191
    2  -0.0000422  -0.0000072   0.0000147  -0.0000043  -0.0000130  -0.0000070
    3   0.0001565   0.0000147  -0.0001039  -0.0000462   0.0000296   0.0000863
    4   0.0000230  -0.0000043  -0.0000462  -0.0013144  -0.0005386   0.0003450
    5  -0.0000623  -0.0000130   0.0000296  -0.0005386  -0.0002785   0.0000870
    6  -0.0001191  -0.0000070   0.0000863   0.0003450   0.0000870  -0.0001976
    7  -0.0002428  -0.0000706   0.0000532   0.0003358   0.0002147   0.0000598
    8   0.0000505   0.0000093  -0.0000311   0.0005928   0.0003163  -0.0000721
    9   0.0001399   0.0000262  -0.0000409   0.0004184   0.0001881  -0.0000984
   10   0.0000571   0.0000053  -0.0000410  -0.0000850  -0.0000386   0.0000155
   11   0.0000416   0.0000056  -0.0000299  -0.0000522  -0.0000328   0.0000134
   12  -0.0000168  -0.0000117  -0.0000116  -0.0001219  -0.0000474   0.0000397
   13  -0.0000042  -0.0000018  -0.0000021  -0.0000074   0.0000007   0.0000151
   14  -0.0000042   0.0000007   0.0000006  -0.0000024  -0.0000029   0.0000023
   15   0.0000312   0.0000114  -0.0000074   0.0000742   0.0000395  -0.0000103
   16   0.0000556   0.0000089  -0.0000300  -0.0000280  -0.0000038   0.0000103
   17   0.0000066  -0.0000004  -0.0000028  -0.0000038   0.0000020   0.0000010
   18  -0.0000167  -0.0000034   0.0000154   0.0000228   0.0000047  -0.0000077
   19  -0.0000119  -0.0000015   0.0000068   0.0000401   0.0000133  -0.0000176
   20  -0.0000008  -0.0000003   0.0000018   0.0000199   0.0000106  -0.0000054
   21   0.0000011  -0.0000001  -0.0000010  -0.0000040  -0.0000007   0.0000066
   22  -0.0000031  -0.0000011   0.0000008   0.0000333   0.0000121  -0.0000131
   23  -0.0000021   0.0000002   0.0000000   0.0000110   0.0000041  -0.0000076
   24   0.0000013   0.0000006  -0.0000015  -0.0000038  -0.0000021   0.0000048
   25   0.0000029   0.0000008  -0.0000001  -0.0000053  -0.0000013   0.0000017
   26  -0.0000039  -0.0000000   0.0000030  -0.0000005  -0.0000003  -0.0000009
   27  -0.0000044  -0.0000006   0.0000018  -0.0000017  -0.0000011  -0.0000001
   28   0.0000339   0.0000134  -0.0000018   0.0000058  -0.0000005  -0.0000075
   29   0.0000114   0.0000056   0.0000005   0.0000039   0.0000025  -0.0000045
   30  -0.0000028  -0.0000003   0.0000014   0.0000025  -0.0000002   0.0000003
   31  -0.0000012  -0.0000002   0.0000006  -0.0000022  -0.0000011   0.0000005
   32  -0.0000003  -0.0000001  -0.0000001  -0.0000008  -0.0000003   0.0000005
   33   0.0000009   0.0000006   0.0000006   0.0000056   0.0000026  -0.0000020
   34  -0.0000074  -0.0000013   0.0000040   0.0000005  -0.0000039  -0.0000070
   35  -0.0000012  -0.0000002   0.0000007   0.0000003  -0.0000006  -0.0000014
   36   0.0000036   0.0000006  -0.0000022  -0.0000000   0.0000019   0.0000033
   37   0.0000012   0.0000001  -0.0000009   0.0000013   0.0000012   0.0000008
   38   0.0000005   0.0000001  -0.0000003   0.0000006   0.0000005   0.0000003
   39  -0.0000030  -0.0000003   0.0000020  -0.0000026  -0.0000026  -0.0000019
   40  -0.0000010  -0.0000003   0.0000003   0.0000032   0.0000012  -0.0000007
   41   0.0000004   0.0000002  -0.0000003  -0.0000003  -0.0000001  -0.0000000
   42   0.0000022   0.0000005  -0.0000014  -0.0000079  -0.0000033   0.0000015
   43   0.0000089   0.0000012  -0.0000025  -0.0000006  -0.0000004   0.0000009
   44  -0.0000041  -0.0000005   0.0000025   0.0000094   0.0000008  -0.0000028
   45  -0.0000021   0.0000006   0.0000008   0.0000163   0.0000030  -0.0000015
   46   0.0008077   0.0000738  -0.0005562  -0.0007568   0.0001879   0.0008699
   47   0.0000413  -0.0000238  -0.0000772  -0.0006316  -0.0000974   0.0003233
   48  -0.0000702  -0.0000154   0.0000110  -0.0005259  -0.0002134   0.0001540
   49   0.0001562   0.0001881   0.0002670   0.0022793   0.0003038  -0.0013324
   50   0.0000472   0.0000789   0.0001372   0.0009869   0.0000824  -0.0006161
   51  -0.0005728   0.0000533   0.0005974  -0.0032485  -0.0023248  -0.0009520
   52  -0.0001979  -0.0000290   0.0000689   0.0000471   0.0001089   0.0000385
   53  -0.0000607  -0.0000064   0.0000284   0.0001997   0.0001195  -0.0000291
   54  -0.0000481  -0.0000014   0.0000256  -0.0000836  -0.0000253   0.0000029
   55  -0.0000361  -0.0000130   0.0000178   0.0002437   0.0001317  -0.0000243
   56  -0.0000165  -0.0000018   0.0000130   0.0000446   0.0000230  -0.0000052
   57  -0.0000157  -0.0000052   0.0000089   0.0001317   0.0000610  -0.0000073
   58  -0.0000008   0.0000001   0.0000017  -0.0000139   0.0000175   0.0000194
   59  -0.0000053   0.0000006   0.0000049   0.0000270   0.0000150  -0.0000108
   60   0.0000095   0.0000008  -0.0000065  -0.0000014   0.0000169   0.0000167
   61   0.0000357   0.0000033  -0.0000234  -0.0000672  -0.0000424   0.0000358
   62   0.0000233   0.0000021  -0.0000161  -0.0000540  -0.0000241   0.0000296
   63   0.0000107   0.0000003  -0.0000047   0.0000287   0.0000163  -0.0000013
   64  -0.0000013  -0.0000009   0.0000016   0.0000423   0.0000283   0.0000043
   65   0.0000023   0.0000008   0.0000001   0.0000035   0.0000023  -0.0000004
   66  -0.0000016  -0.0000005  -0.0000003   0.0000050   0.0000004  -0.0000027
   67  -0.0000087  -0.0000069  -0.0000054  -0.0001051  -0.0000527   0.0000334
   68  -0.0000060  -0.0000037  -0.0000019  -0.0000563  -0.0000277   0.0000177
   69  -0.0000042  -0.0000023  -0.0000007  -0.0000206  -0.0000105   0.0000113
   70   0.0000068   0.0000018  -0.0000037  -0.0000225  -0.0000146  -0.0000005
   71   0.0000040   0.0000010  -0.0000023  -0.0000063  -0.0000065  -0.0000002
   72   0.0000000   0.0000004   0.0000004  -0.0000069  -0.0000072  -0.0000001
   73  -0.0000009  -0.0000006  -0.0000004  -0.0000023  -0.0000002   0.0000018
   74  -0.0000013  -0.0000004   0.0000002   0.0000029   0.0000016   0.0000007
   75  -0.0000000  -0.0000001  -0.0000003  -0.0000012   0.0000005   0.0000007
   76   0.0000036  -0.0000001  -0.0000026  -0.0000071  -0.0000007   0.0000049
   77   0.0000008   0.0000002  -0.0000002  -0.0000016  -0.0000009  -0.0000003
   78  -0.0000210  -0.0000004   0.0000091   0.0000274   0.0000126  -0.0000060
   79  -0.0002280  -0.0001451   0.0000101  -0.0002645   0.0000024   0.0001639
   80  -0.0000176  -0.0000558  -0.0000791  -0.0002476   0.0000460   0.0002257
   81   0.0005621  -0.0000418  -0.0004892   0.0027361   0.0018111   0.0006529
   82  -0.0001469   0.0000326   0.0001267  -0.0000990  -0.0001354  -0.0001602
   83   0.0000359  -0.0000264  -0.0000456   0.0001392   0.0001017   0.0000457
   84  -0.0000300   0.0000044   0.0000082  -0.0016707  -0.0007050   0.0004040
   85  -0.0000011   0.0000068   0.0000085  -0.0003299  -0.0001616   0.0000589
   86  -0.0000236   0.0000361   0.0000457  -0.0004869  -0.0002654   0.0000316
   87  -0.0000737  -0.0000204  -0.0000286   0.0015723   0.0008509  -0.0002193
   88   0.0000109  -0.0000054  -0.0000126   0.0000190   0.0000153   0.0000106
   89   0.0000134   0.0000118   0.0000030  -0.0000077  -0.0000177  -0.0000161
   90  -0.0000227  -0.0000178  -0.0000115  -0.0002271  -0.0000668   0.0001704
   91   0.0000007   0.0000002  -0.0000001  -0.0000008  -0.0000008  -0.0000009
   92   0.0000001   0.0000001   0.0000000  -0.0000012  -0.0000006  -0.0000000
   93  -0.0000011  -0.0000014  -0.0000010   0.0000178   0.0000123   0.0000067
   94  -0.0000322   0.0000034   0.0000236  -0.0000032  -0.0000203  -0.0000425
   95  -0.0000299  -0.0000038   0.0000119   0.0000181   0.0000041  -0.0000133
   96   0.0001544   0.0000097  -0.0001008   0.0006244   0.0003710   0.0000458
   97   0.0000004   0.0000000  -0.0000000  -0.0000007  -0.0000000  -0.0000006
   98   0.0000006   0.0000000  -0.0000003   0.0000005   0.0000003  -0.0000002
   99  -0.0000057   0.0000005   0.0000020   0.0000187   0.0000061   0.0000008
  100   0.0000117  -0.0000475  -0.0000523   0.0001071   0.0001056   0.0000885
  101   0.0000061  -0.0000224  -0.0000249   0.0000562   0.0000609   0.0000358
  102  -0.0000692   0.0000026   0.0000643  -0.0001302  -0.0001290  -0.0001162
  103  -0.0000001   0.0000006   0.0000006   0.0000034   0.0000014  -0.0000021
  104  -0.0000007  -0.0000001   0.0000006   0.0000021   0.0000004  -0.0000015
  105   0.0000056  -0.0000034  -0.0000098  -0.0000473  -0.0000152   0.0000287
  106  -0.0000015   0.0000000   0.0000012  -0.0000103  -0.0000052   0.0000006
  107  -0.0000023  -0.0000000   0.0000016  -0.0000003  -0.0000015  -0.0000018
  108   0.0000110  -0.0000003  -0.0000094   0.0000946   0.0000472  -0.0000068
  109  -0.0000052   0.0000370   0.0000356  -0.0000582  -0.0000661  -0.0000602
  110  -0.0000019   0.0000506   0.0000476  -0.0000962  -0.0000960  -0.0000804
  111   0.0000004   0.0000063   0.0000047  -0.0000069  -0.0000208  -0.0000052
  112   0.0000003   0.0000003   0.0000001   0.0000021   0.0000009  -0.0000008
  113  -0.0000000  -0.0000001  -0.0000001   0.0000015   0.0000008  -0.0000001
  114  -0.0000026  -0.0000005   0.0000011  -0.0000240  -0.0000121   0.0000044
  115   0.0000007  -0.0000049  -0.0000051   0.0000059   0.0000077   0.0000101
  116   0.0000036  -0.0000367  -0.0000370   0.0000706   0.0000710   0.0000633
  117   0.0000055  -0.0000005  -0.0000042   0.0000398   0.0000230  -0.0000068
  118  -0.0000009  -0.0000001   0.0000006   0.0000020   0.0000011   0.0000003
  119   0.0000003   0.0000001  -0.0000002  -0.0000015  -0.0000008  -0.0000001
  120   0.0000016   0.0000001  -0.0000012  -0.0000022  -0.0000007   0.0000007
  121  -0.0000001   0.0000000   0.0000001   0.0000003   0.0000001  -0.0000000
  122   0.0000002  -0.0000000  -0.0000001  -0.0000001   0.0000000   0.0000001
  123  -0.0000016  -0.0000001   0.0000011   0.0000012   0.0000002  -0.0000007
  124  -0.0000022  -0.0000011   0.0000003  -0.0000096  -0.0000049  -0.0000006
  125  -0.0000021  -0.0000003   0.0000012   0.0000029   0.0000011  -0.0000005
  126   0.0000088   0.0000016  -0.0000044   0.0000010   0.0000018   0.0000011
  127  -0.0000000   0.0000000   0.0000000   0.0000000  -0.0000000   0.0000000
  128  -0.0000001  -0.0000000   0.0000000  -0.0000000  -0.0000000   0.0000000
  129   0.0000002   0.0000000  -0.0000001  -0.0000001  -0.0000000   0.0000000
  130  -0.0000001  -0.0000000   0.0000001   0.0000000  -0.0000000  -0.0000000
  131  -0.0000001  -0.0000000   0.0000000   0.0000000  -0.0000000  -0.0000001
  132   0.0000003   0.0000000  -0.0000002  -0.0000004  -0.0000001   0.0000001
  133   0.0000004   0.0000001  -0.0000002  -0.0000016  -0.0000005  -0.0000001
  134  -0.0000008  -0.0000000   0.0000004   0.0000010   0.0000002   0.0000001
  135  -0.0000016  -0.0000003   0.0000009   0.0000009   0.0000004   0.0000001
  136   0.0000000   0.0000000  -0.0000000   0.0000000   0.0000000  -0.0000000
  137  -0.0000000  -0.0000000   0.0000000  -0.0000000  -0.0000000   0.0000000
  138  -0.0000001  -0.0000000   0.0000000   0.0000001   0.0000000  -0.0000000
  139  -0.0000000  -0.0000000   0.0000000   0.0000000  -0.0000000  -0.0000000
  140   0.0000000   0.0000000  -0.0000000   0.0000000   0.0000000   0.0000000
  141   0.0000000   0.0000000  -0.0000000  -0.0000000  -0.0000000   0.0000000
  142   0.0000000   0.0000000  -0.0000000  -0.0000000  -0.0000000   0.0000000
  143   0.0000001   0.0000000  -0.0000000   0.0000001   0.0000001   0.0000000
  144  -0.0000001  -0.0000000   0.0000001   0.0000001   0.0000000  -0.0000000
  145  -0.0000000  -0.0000000   0.0000000   0.0000002   0.0000001  -0.0000000
  146   0.0000001   0.0000000  -0.0000000   0.0000001   0.0000001   0.0000000
  147   0.0000001  -0.0000000  -0.0000001   0.0000007   0.0000004   0.0000001
  148   0.0000000   0.0000000  -0.0000000  -0.0000001  -0.0000002   0.0000001
  149   0.0000001  -0.0000002  -0.0000000  -0.0000007  -0.0000000   0.0000001
  150  -0.0000000   0.0000001   0.0000000  -0.0000004  -0.0000003   0.0000000
  151   0.0000000   0.0000000  -0.0000000   0.0000000   0.0000000  -0.0000000
  152  -0.0000000  -0.0000000   0.0000000   0.0000000   0.0000000  -0.0000000
  153   0.0000000   0.0000000  -0.0000000   0.0000001   0.0000000   0.0000000
  154   0.0000000   0.0000000  -0.0000000   0.0000000   0.0000000   0.0000000
  155  -0.0000000  -0.0000000   0.0000000  -0.0000000  -0.0000000  -0.0000000
  156   0.0000000   0.0000000  -0.0000000   0.0000000   0.0000000   0.0000000
  157  -0.0000000  -0.0000000   0.0000000  -0.0000000  -0.0000000   0.0000000
  158  -0.0000000  -0.0000000   0.0000000  -0.0000000  -0.0000000  -0.0000000
  159  -0.0000000  -0.0000000   0.0000000  -0.0000000  -0.0000000  -0.0000000
  160   0.0000000   0.0000000  -0.0000000   0.0000000   0.0000000   0.0000000
  161  -0.0000000  -0.0000000   0.0000000  -0.0000000  -0.0000000  -0.0000000
  162  -0.0000000   0.0000000   0.0000000  -0.0000000  -0.0000000  -0.0000000
  163   0.0000000   0.0000000  -0.0000000   0.0000000   0.0000000   0.0000000
  164  -0.0000000  -0.0000000   0.0000000  -0.0000000  -0.0000000  -0.0000000
  165  -0.0000000  -0.0000000   0.0000000   0.0000000   0.0000000  -0.0000000
  166   0.0000001   0.0000000  -0.0000000   0.0000002   0.0000001   0.0000000
  167   0.0000000   0.0000000   0.0000000   0.0000001   0.0000000  -0.0000000
  168  -0.0000000  -0.0000000   0.0000000  -0.0000001  -0.0000001  -0.0000000
            7           8           9          10          11          12
    1  -0.0002428   0.0000505   0.0001399   0.0000571   0.0000416  -0.0000168
    2  -0.0000706   0.0000093   0.0000262   0.0000053   0.0000056  -0.0000117
    3   0.0000532  -0.0000311  -0.0000409  -0.0000410  -0.0000299  -0.0000116
    4   0.0003358   0.0005928   0.0004184  -0.0000850  -0.0000522  -0.0001219
    5   0.0002147   0.0003163   0.0001881  -0.0000386  -0.0000328  -0.0000474
    6   0.0000598  -0.0000721  -0.0000984   0.0000155   0.0000134   0.0000397
    7  -0.0069822  -0.0008518   0.0020884   0.0001452   0.0000725  -0.0002998
    8  -0.0008518  -0.0007302  -0.0001162   0.0001487   0.0001174   0.0000207
    9   0.0020884  -0.0001162  -0.0011793   0.0000581   0.0000465   0.0002726
   10   0.0001452   0.0001487   0.0000581  -0.0005042  -0.0002755  -0.0001027
   11   0.0000725   0.0001174   0.0000465  -0.0002755  -0.0001793  -0.0000839
   12  -0.0002998   0.0000207   0.0002726  -0.0001027  -0.0000839  -0.0006479
   13  -0.0002158  -0.0000003   0.0000987  -0.0000407  -0.0000324  -0.0000534
   14  -0.0000415   0.0000017   0.0000198  -0.0000111  -0.0000052  -0.0000138
   15  -0.0000351  -0.0000151  -0.0000190   0.0000143   0.0000126   0.0003191
   16   0.0001323   0.0000145  -0.0000444  -0.0000333  -0.0000208  -0.0000333
   17   0.0000014   0.0000017  -0.0000011  -0.0000032  -0.0000019  -0.0000025
   18  -0.0000177  -0.0000102  -0.0000004   0.0000146   0.0000112   0.0000203
   19   0.0000291  -0.0000016  -0.0000080  -0.0000047  -0.0000025   0.0000090
   20  -0.0000024  -0.0000040  -0.0000026  -0.0000017  -0.0000006   0.0000038
   21  -0.0000003   0.0000019  -0.0000038   0.0000016   0.0000014   0.0000035
   22  -0.0000019  -0.0000052  -0.0000012   0.0000047   0.0000032   0.0000019
   23   0.0000121   0.0000018  -0.0000009   0.0000032   0.0000014  -0.0000029
   24  -0.0000011  -0.0000006   0.0000008  -0.0000009  -0.0000014  -0.0000012
   25  -0.0000057   0.0000015   0.0000039   0.0000012   0.0000008  -0.0000004
   26  -0.0000096   0.0000000   0.0000041   0.0000018   0.0000012  -0.0000007
   27  -0.0000036   0.0000008   0.0000024   0.0000008   0.0000007  -0.0000012
   28   0.0000769   0.0000067  -0.0000239  -0.0000026  -0.0000021   0.0000118
   29   0.0000253   0.0000001  -0.0000083   0.0000001  -0.0000003   0.0000046
   30  -0.0000038  -0.0000007   0.0000004  -0.0000005  -0.0000001  -0.0000003
   31  -0.0000058  -0.0000007   0.0000020   0.0000071   0.0000046  -0.0000011
   32  -0.0000048  -0.0000007   0.0000017   0.0000022   0.0000022  -0.0000012
   33   0.0000140  -0.0000009  -0.0000092  -0.0000031  -0.0000022   0.0000163
   34   0.0000705   0.0000071  -0.0000216   0.0000044   0.0000044   0.0000055
   35   0.0000121   0.0000010  -0.0000026   0.0000007   0.0000008   0.0000020
   36  -0.0000327  -0.0000033   0.0000108  -0.0000038  -0.0000032  -0.0000050
   37  -0.0000087  -0.0000019   0.0000024   0.0000005  -0.0000001  -0.0000002
   38  -0.0000029  -0.0000006   0.0000008   0.0000007   0.0000001   0.0000003
   39   0.0000149   0.0000030  -0.0000039  -0.0000003   0.0000010  -0.0000000
   40   0.0000007  -0.0000018  -0.0000020   0.0000019   0.0000013   0.0000016
   41   0.0000013   0.0000004  -0.0000001  -0.0000007  -0.0000005  -0.0000002
   42   0.0000009   0.0000055   0.0000048  -0.0000070  -0.0000046  -0.0000037
   43   0.0001429   0.0000231  -0.0000413  -0.0000024  -0.0000031   0.0000106
   44  -0.0000512   0.0000111   0.0000089   0.0000081   0.0000017   0.0000042
   45  -0.0000456  -0.0000162  -0.0000090   0.0000039   0.0000027   0.0000033
   46   0.0029652  -0.0004800  -0.0021411   0.0008370   0.0005696   0.0013191
   47  -0.0018014   0.0002724   0.0004581   0.0003233   0.0002145   0.0003047
   48  -0.0016872   0.0000854   0.0011603  -0.0000286  -0.0000252  -0.0000856
   49   0.0075748   0.0008171  -0.0014784  -0.0013524  -0.0012061  -0.0002645
   50   0.0037986   0.0006175  -0.0007623  -0.0006517  -0.0005651  -0.0001470
   51   0.0244780   0.0050575  -0.0048269  -0.0011639  -0.0001061  -0.0012407
   52  -0.0020684  -0.0003541   0.0002151   0.0011235   0.0007580  -0.0003107
   53  -0.0006611  -0.0003135  -0.0000637   0.0003475   0.0002529  -0.0000093
   54  -0.0007095  -0.0001028   0.0002524   0.0003255   0.0002040  -0.0000182
   55  -0.0009465  -0.0002832   0.0001338   0.0000537   0.0000642   0.0001450
   56  -0.0002517  -0.0000259   0.0000302   0.0001466   0.0001051   0.0000893
   57  -0.0003654  -0.0001237  -0.0000143  -0.0000372  -0.0000075   0.0001844
   58  -0.0002796  -0.0000381  -0.0000008   0.0001137   0.0000829  -0.0000098
   59   0.0000315  -0.0000002   0.0000035   0.0000288   0.0000201  -0.0000012
   60  -0.0000204  -0.0000618  -0.0000608   0.0000712   0.0000466  -0.0000121
   61   0.0002036  -0.0000065  -0.0000183  -0.0002179  -0.0001213   0.0002235
   62   0.0001444  -0.0000235  -0.0000313  -0.0001005  -0.0000543   0.0001195
   63   0.0001727   0.0000588  -0.0000835  -0.0000035  -0.0000036  -0.0000418
   64  -0.0001160  -0.0000762  -0.0000341   0.0000737   0.0000604   0.0001055
   65   0.0000575   0.0000022  -0.0000258   0.0000255   0.0000183   0.0000359
   66  -0.0000510   0.0000127   0.0000282  -0.0000355  -0.0000256  -0.0000527
   67  -0.0002875   0.0000468   0.0002425  -0.0000686  -0.0000785  -0.0003976
   68  -0.0001570   0.0000215   0.0001272  -0.0000235  -0.0000329  -0.0002032
   69  -0.0001680  -0.0000040   0.0000876   0.0000136  -0.0000076  -0.0001379
   70   0.0002050   0.0000445  -0.0000331  -0.0000530  -0.0000415  -0.0000288
   71   0.0001074   0.0000184  -0.0000141  -0.0000382  -0.0000315  -0.0000131
   72   0.0000747   0.0000138   0.0000072  -0.0000078  -0.0000053  -0.0000073
   73  -0.0000341  -0.0000072   0.0000092   0.0000062   0.0000056  -0.0000074
   74  -0.0000262  -0.0000077   0.0000006   0.0000038   0.0000024   0.0000027
   75  -0.0000068  -0.0000048  -0.0000043   0.0000012   0.0000014  -0.0000003
   76   0.0000115  -0.0000078  -0.0000078   0.0000060   0.0000062   0.0000220
   77  -0.0000006   0.0000001   0.0000034  -0.0000006  -0.0000007   0.0000061
   78  -0.0001099   0.0000050   0.0000056   0.0000156   0.0000062  -0.0001586
   79   0.0001634  -0.0000670  -0.0001786   0.0000299   0.0002575  -0.0000421
   80  -0.0002021  -0.0004893  -0.0000550   0.0000471   0.0001546  -0.0000247
   81  -0.0136078  -0.0036488   0.0009091   0.0007537   0.0000824   0.0009149
   82  -0.0011798   0.0003723   0.0006807  -0.0001161  -0.0001449  -0.0002808
   83   0.0005733  -0.0001644  -0.0003956   0.0000276   0.0000665  -0.0000255
   84  -0.0042395   0.0001857   0.0028570   0.0000347  -0.0000073   0.0017219
   85  -0.0000687   0.0001105   0.0001563   0.0000167   0.0000129   0.0001961
   86  -0.0010428   0.0004468   0.0005976   0.0000190  -0.0000756   0.0000183
   87  -0.0027640  -0.0005411   0.0000122   0.0000550  -0.0001226  -0.0019104
   88   0.0002081   0.0000299  -0.0001792   0.0000240   0.0000183  -0.0000944
   89   0.0001672   0.0000435  -0.0000329   0.0000220  -0.0000138  -0.0000221
   90  -0.0023026  -0.0002071   0.0010762  -0.0000247  -0.0000165   0.0009508
   91   0.0000428   0.0000046  -0.0000173  -0.0000008   0.0000009  -0.0000039
   92  -0.0000010   0.0000006   0.0000026   0.0000004  -0.0000006  -0.0000014
   93  -0.0002811  -0.0000518   0.0001122   0.0000058  -0.0000032   0.0000377
   94   0.0002396  -0.0000046   0.0000047  -0.0000319  -0.0000035  -0.0000197
   95  -0.0000897  -0.0000594   0.0000634  -0.0000099   0.0000040  -0.0000101
   96  -0.0015613  -0.0006165  -0.0000271   0.0001002   0.0000149   0.0001504
   97   0.0000123   0.0000055  -0.0000051   0.0000003   0.0000004  -0.0000021
   98   0.0000165   0.0000038  -0.0000084  -0.0000000   0.0000011  -0.0000002
   99  -0.0001660  -0.0000796   0.0000762  -0.0000006  -0.0000056   0.0000187
  100  -0.0000498  -0.0001833  -0.0001625   0.0000145   0.0000733   0.0000526
  101   0.0000661  -0.0001059  -0.0001115  -0.0000053   0.0000464   0.0000157
  102   0.0015642   0.0002884  -0.0004103  -0.0000164   0.0000247  -0.0003990
  103  -0.0000007   0.0000001  -0.0000010   0.0000023   0.0000009  -0.0000097
  104   0.0000011   0.0000014  -0.0000004  -0.0000007  -0.0000003  -0.0000033
  105  -0.0000113  -0.0000105   0.0000120  -0.0000070  -0.0000019   0.0000941
  106  -0.0000107   0.0000064   0.0000119   0.0000005   0.0000004   0.0000044
  107  -0.0000143   0.0000034   0.0000091  -0.0000005  -0.0000008   0.0000011
  108   0.0000773  -0.0000561  -0.0000988  -0.0000042  -0.0000045  -0.0000413
  109  -0.0000690   0.0001038   0.0001506  -0.0000020  -0.0000574  -0.0000125
  110  -0.0001301   0.0001764   0.0002304  -0.0000017  -0.0000764  -0.0000077
  111  -0.0001475   0.0000339   0.0000388  -0.0000010  -0.0000055   0.0000788
  112   0.0000010  -0.0000012  -0.0000010   0.0000000  -0.0000004  -0.0000022
  113   0.0000023  -0.0000011  -0.0000024   0.0000000   0.0000002  -0.0000006
  114  -0.0000293   0.0000178   0.0000292  -0.0000013  -0.0000001   0.0000199
  115   0.0000109  -0.0000205  -0.0000209  -0.0000024   0.0000067   0.0000077
  116   0.0001123  -0.0001411  -0.0001883  -0.0000012   0.0000550   0.0000060
  117   0.0000605  -0.0000141  -0.0000608   0.0000054   0.0000032  -0.0000686
  118  -0.0000016  -0.0000021  -0.0000012   0.0000029   0.0000019   0.0000006
  119   0.0000002   0.0000015   0.0000011  -0.0000018  -0.0000012  -0.0000003
  120   0.0000038   0.0000009  -0.0000006  -0.0000015  -0.0000010  -0.0000020
  121  -0.0000007  -0.0000002   0.0000001   0.0000003   0.0000001  -0.0000000
  122   0.0000008  -0.0000000  -0.0000003  -0.0000001  -0.0000000   0.0000001
  123  -0.0000026  -0.0000001   0.0000008   0.0000005   0.0000003   0.0000012
  124   0.0000016   0.0000081   0.0000065  -0.0000083  -0.0000058  -0.0000014
  125   0.0000005  -0.0000014  -0.0000011   0.0000014   0.0000007  -0.0000011
  126   0.0000144  -0.0000005  -0.0000066  -0.0000017  -0.0000008  -0.0000002
  127  -0.0000001  -0.0000000   0.0000000   0.0000000   0.0000000   0.0000000
  128  -0.0000007   0.0000000   0.0000002   0.0000000   0.0000000  -0.0000000
  129   0.0000002   0.0000001  -0.0000000  -0.0000002  -0.0000001  -0.0000002
  130  -0.0000001  -0.0000000   0.0000000   0.0000000   0.0000000   0.0000001
  131  -0.0000007   0.0000000   0.0000002   0.0000000   0.0000000  -0.0000001
  132   0.0000011   0.0000003  -0.0000002  -0.0000004  -0.0000003  -0.0000002
  133   0.0000037   0.0000016  -0.0000001  -0.0000019  -0.0000011   0.0000002
  134  -0.0000041  -0.0000011   0.0000006   0.0000016   0.0000010  -0.0000002
  135  -0.0000043  -0.0000012   0.0000008   0.0000021   0.0000012   0.0000003
  136   0.0000002  -0.0000000  -0.0000000  -0.0000000  -0.0000000  -0.0000000
  137  -0.0000002   0.0000000   0.0000001  -0.0000000  -0.0000000  -0.0000000
  138  -0.0000001  -0.0000000   0.0000000   0.0000001   0.0000000   0.0000001
  139  -0.0000001   0.0000000   0.0000000  -0.0000000  -0.0000000   0.0000000
  140   0.0000001  -0.0000000  -0.0000000   0.0000000   0.0000000   0.0000000
  141   0.0000001   0.0000000  -0.0000000  -0.0000000  -0.0000000  -0.0000000
  142   0.0000002   0.0000000  -0.0000000  -0.0000000  -0.0000000   0.0000000
  143   0.0000007  -0.0000001  -0.0000003   0.0000000   0.0000000   0.0000000
  144  -0.0000001  -0.0000001  -0.0000000   0.0000001   0.0000001   0.0000001
  145  -0.0000003  -0.0000002   0.0000000   0.0000002   0.0000002  -0.0000000
  146   0.0000006  -0.0000001  -0.0000003   0.0000000   0.0000000   0.0000001
  147  -0.0000012  -0.0000009  -0.0000002   0.0000008   0.0000005  -0.0000000
  148  -0.0000012  -0.0000001   0.0000002   0.0000005   0.0000004  -0.0000000
  149  -0.0000014  -0.0000004   0.0000006   0.0000007   0.0000006   0.0000002
  150  -0.0000012  -0.0000000   0.0000005   0.0000005   0.0000004   0.0000000
  151   0.0000004  -0.0000000  -0.0000001  -0.0000000  -0.0000000   0.0000000
  152  -0.0000000   0.0000000   0.0000000   0.0000000  -0.0000000   0.0000000
  153  -0.0000001  -0.0000001  -0.0000000   0.0000001   0.0000000  -0.0000000
  154   0.0000002  -0.0000000  -0.0000001   0.0000000   0.0000000   0.0000000
  155  -0.0000000   0.0000000   0.0000000  -0.0000000  -0.0000000  -0.0000000
  156   0.0000000  -0.0000000  -0.0000000   0.0000000   0.0000000  -0.0000000
  157  -0.0000001   0.0000000   0.0000000  -0.0000000  -0.0000000  -0.0000000
  158  -0.0000002   0.0000000   0.0000001  -0.0000000  -0.0000000  -0.0000000
  159  -0.0000000   0.0000000   0.0000000   0.0000000   0.0000000  -0.0000000
  160   0.0000000  -0.0000000  -0.0000000  -0.0000000  -0.0000000  -0.0000000
  161  -0.0000003   0.0000000   0.0000001  -0.0000000  -0.0000000  -0.0000000
  162  -0.0000001  -0.0000000   0.0000000   0.0000000   0.0000000   0.0000000
  163   0.0000002  -0.0000000  -0.0000001   0.0000000   0.0000000   0.0000000
  164  -0.0000002   0.0000000   0.0000001  -0.0000000  -0.0000000  -0.0000000
  165  -0.0000000  -0.0000000  -0.0000000   0.0000000   0.0000000   0.0000000
  166  -0.0000002  -0.0000002  -0.0000001   0.0000002   0.0000001   0.0000000
  167   0.0000000  -0.0000000  -0.0000000   0.0000000   0.0000000  -0.0000000
  168  -0.0000000   0.0000001   0.0000001  -0.0000001  -0.0000000  -0.0000000
           13          14          15          16          17          18
    1  -0.0000042  -0.0000042   0.0000312   0.0000556   0.0000066  -0.0000167
    2  -0.0000018   0.0000007   0.0000114   0.0000089  -0.0000004  -0.0000034
    3  -0.0000021   0.0000006  -0.0000074  -0.0000300  -0.0000028   0.0000154
    4  -0.0000074  -0.0000024   0.0000742  -0.0000280  -0.0000038   0.0000228
    5   0.0000007  -0.0000029   0.0000395  -0.0000038   0.0000020   0.0000047
    6   0.0000151   0.0000023  -0.0000103   0.0000103   0.0000010  -0.0000077
    7  -0.0002158  -0.0000415  -0.0000351   0.0001323   0.0000014  -0.0000177
    8  -0.0000003   0.0000017  -0.0000151   0.0000145   0.0000017  -0.0000102
    9   0.0000987   0.0000198  -0.0000190  -0.0000444  -0.0000011  -0.0000004
   10  -0.0000407  -0.0000111   0.0000143  -0.0000333  -0.0000032   0.0000146
   11  -0.0000324  -0.0000052   0.0000126  -0.0000208  -0.0000019   0.0000112
   12  -0.0000534  -0.0000138   0.0003191  -0.0000333  -0.0000025   0.0000203
   13  -0.0001077  -0.0000225   0.0000438   0.0000481   0.0000045  -0.0000135
   14  -0.0000225  -0.0000084   0.0000174   0.0000120   0.0000032  -0.0000047
   15   0.0000438   0.0000174  -0.0003022   0.0000175  -0.0000036  -0.0000011
   16   0.0000481   0.0000120   0.0000175  -0.0000730  -0.0000110   0.0000326
   17   0.0000045   0.0000032  -0.0000036  -0.0000110  -0.0000065   0.0000066
   18  -0.0000135  -0.0000047  -0.0000011   0.0000326   0.0000066  -0.0000265
   19  -0.0000002  -0.0000004  -0.0000020   0.0000034   0.0000012  -0.0000021
   20  -0.0000006  -0.0000001  -0.0000012   0.0000012   0.0000004  -0.0000014
   21  -0.0000003   0.0000001  -0.0000004   0.0000006   0.0000001  -0.0000006
   22   0.0000020   0.0000006   0.0000007  -0.0000022  -0.0000005   0.0000006
   23   0.0000017   0.0000005   0.0000021  -0.0000029  -0.0000003   0.0000016
   24  -0.0000005  -0.0000001  -0.0000006  -0.0000004  -0.0000002   0.0000004
   25  -0.0000002  -0.0000002   0.0000013  -0.0000001   0.0000002   0.0000005
   26  -0.0000006  -0.0000003   0.0000011   0.0000016   0.0000005  -0.0000006
   27  -0.0000002  -0.0000002   0.0000018   0.0000006   0.0000001   0.0000003
   28   0.0000028   0.0000011  -0.0000094  -0.0000075  -0.0000018   0.0000043
   29   0.0000014   0.0000004  -0.0000044  -0.0000025  -0.0000003   0.0000018
   30   0.0000001   0.0000001   0.0000013  -0.0000000  -0.0000004  -0.0000015
   31   0.0000014   0.0000003   0.0000011   0.0000001   0.0000000  -0.0000002
   32   0.0000006  -0.0000000   0.0000007  -0.0000001   0.0000001  -0.0000001
   33  -0.0000006   0.0000002  -0.0000072   0.0000006  -0.0000002   0.0000004
   34   0.0000306   0.0000066  -0.0000125  -0.0000053   0.0000007   0.0000002
   35   0.0000043   0.0000004  -0.0000036  -0.0000005   0.0000006   0.0000002
   36  -0.0000140  -0.0000032   0.0000076   0.0000023  -0.0000002  -0.0000011
   37   0.0000006   0.0000003  -0.0000047   0.0000003   0.0000002   0.0000005
   38  -0.0000001   0.0000004  -0.0000019   0.0000002  -0.0000002   0.0000000
   39   0.0000001  -0.0000009   0.0000093  -0.0000005   0.0000000  -0.0000007
   40   0.0000002  -0.0000002  -0.0000008   0.0000017   0.0000004  -0.0000014
   41  -0.0000001   0.0000002   0.0000001  -0.0000005  -0.0000004   0.0000006
   42   0.0000000   0.0000002   0.0000019  -0.0000055  -0.0000003   0.0000044
   43   0.0000066   0.0000013  -0.0000027  -0.0000041  -0.0000001   0.0000010
   44   0.0000000  -0.0000000  -0.0000037   0.0000004   0.0000001  -0.0000000
   45  -0.0000008  -0.0000000  -0.0000013   0.0000013  -0.0000000  -0.0000005
   46   0.0002567   0.0000623  -0.0003450  -0.0000260   0.0000213  -0.0000308
   47  -0.0000066   0.0000013  -0.0001120   0.0000487   0.0000091  -0.0000153
   48  -0.0000614  -0.0000127  -0.0000279   0.0000302  -0.0000038   0.0000122
   49   0.0000727   0.0000744  -0.0005122  -0.0001626  -0.0000933   0.0001099
   50   0.0000207   0.0000266  -0.0001599  -0.0000763  -0.0000369   0.0000445
   51   0.0000687  -0.0000825   0.0033966  -0.0003350   0.0001071  -0.0001459
   52   0.0003007   0.0000725   0.0000680  -0.0000243  -0.0000038  -0.0000156
   53   0.0000208  -0.0000024   0.0001146   0.0000263   0.0000092  -0.0000281
   54   0.0001142   0.0000314  -0.0000747  -0.0000131  -0.0000077   0.0000066
   55  -0.0001299  -0.0000419   0.0001511   0.0000715   0.0000236  -0.0000470
   56   0.0000215   0.0000078  -0.0000387   0.0000116   0.0000006  -0.0000067
   57  -0.0001003  -0.0000317   0.0000943   0.0000483   0.0000137  -0.0000295
   58   0.0000128   0.0000017   0.0000136   0.0000002   0.0000024  -0.0000043
   59   0.0000028  -0.0000001   0.0000064   0.0000004   0.0000005  -0.0000013
   60   0.0000077   0.0000011   0.0000183  -0.0000024   0.0000010  -0.0000018
   61   0.0000222   0.0000061  -0.0001378  -0.0000073  -0.0000061   0.0000127
   62   0.0000129   0.0000033  -0.0000690  -0.0000038  -0.0000028   0.0000060
   63  -0.0000008  -0.0000005   0.0000157  -0.0000027   0.0000014  -0.0000016
   64   0.0000105   0.0000018  -0.0000290   0.0000090   0.0000010  -0.0000047
   65   0.0000044   0.0000005  -0.0000134   0.0000021   0.0000006  -0.0000016
   66  -0.0000091  -0.0000016   0.0000239  -0.0000026  -0.0000009   0.0000011
   67  -0.0000256  -0.0000024   0.0001396  -0.0000182  -0.0000079   0.0000139
   68  -0.0000105  -0.0000006   0.0000695  -0.0000090  -0.0000040   0.0000069
   69  -0.0000118  -0.0000017   0.0000520  -0.0000015  -0.0000017   0.0000028
   70  -0.0000039  -0.0000007   0.0000003  -0.0000026  -0.0000012   0.0000019
   71  -0.0000025  -0.0000004  -0.0000026  -0.0000023  -0.0000009   0.0000019
   72   0.0000003  -0.0000009  -0.0000006   0.0000003   0.0000001   0.0000005
   73   0.0000076   0.0000006   0.0000000  -0.0000029   0.0000001   0.0000011
   74  -0.0000005  -0.0000009   0.0000046   0.0000001   0.0000006  -0.0000004
   75   0.0000026   0.0000005  -0.0000000  -0.0000011  -0.0000002   0.0000005
   76   0.0000023   0.0000003  -0.0000094   0.0000014   0.0000003  -0.0000008
   77   0.0000005   0.0000001  -0.0000031   0.0000002  -0.0000000  -0.0000000
   78  -0.0000056  -0.0000009   0.0000761  -0.0000100  -0.0000007   0.0000044
   79  -0.0001288  -0.0001247   0.0003454   0.0000209   0.0000833  -0.0000389
   80  -0.0000161  -0.0000393   0.0001018  -0.0000017   0.0000360  -0.0000080
   81  -0.0000112   0.0000590  -0.0025339   0.0002252  -0.0000571   0.0000969
   82  -0.0001045   0.0000191   0.0002127   0.0000347  -0.0000233  -0.0000141
   83   0.0000211  -0.0000233   0.0000142  -0.0000268   0.0000203   0.0000070
   84   0.0000286   0.0000360  -0.0012592   0.0001733  -0.0000206  -0.0000035
   85   0.0000172   0.0000116  -0.0001063   0.0000110  -0.0000031  -0.0000016
   86  -0.0000096   0.0000416   0.0000038   0.0000233  -0.0000348  -0.0000044
   87  -0.0001879  -0.0000396   0.0010518  -0.0000901  -0.0000124   0.0000330
   88  -0.0000062  -0.0000074   0.0000836  -0.0000027   0.0000013  -0.0000027
   89   0.0000104   0.0000099   0.0000178  -0.0000012  -0.0000082  -0.0000002
   90   0.0000664   0.0000277  -0.0007701   0.0000559  -0.0000162   0.0000177
   91   0.0000004  -0.0000002   0.0000049  -0.0000005   0.0000002  -0.0000000
   92  -0.0000003  -0.0000000   0.0000016  -0.0000001  -0.0000000  -0.0000001
   93   0.0000011   0.0000020  -0.0000483   0.0000031  -0.0000018   0.0000007
   94  -0.0000172  -0.0000001   0.0000386   0.0000095  -0.0000004  -0.0000062
   95  -0.0000231  -0.0000064   0.0000211   0.0000121   0.0000039  -0.0000050
   96   0.0000432   0.0000066  -0.0002882  -0.0000114  -0.0000029   0.0000109
   97  -0.0000001  -0.0000002   0.0000033  -0.0000002   0.0000001  -0.0000001
   98   0.0000006  -0.0000001   0.0000006  -0.0000003   0.0000001   0.0000000
   99  -0.0000012   0.0000022  -0.0000308   0.0000033  -0.0000020   0.0000004
  100  -0.0000039  -0.0000425  -0.0000481  -0.0000175   0.0000365   0.0000086
  101  -0.0000011  -0.0000204  -0.0000141  -0.0000103   0.0000192   0.0000027
  102  -0.0000293  -0.0000145   0.0003564  -0.0000164   0.0000114  -0.0000082
  103  -0.0000002   0.0000001   0.0000056  -0.0000004  -0.0000001   0.0000002
  104  -0.0000006  -0.0000002   0.0000019  -0.0000001   0.0000001   0.0000001
  105   0.0000045   0.0000010  -0.0000527   0.0000047  -0.0000003  -0.0000026
  106  -0.0000001   0.0000001  -0.0000038   0.0000008  -0.0000000   0.0000000
  107  -0.0000014  -0.0000001  -0.0000006   0.0000010  -0.0000001  -0.0000003
  108  -0.0000015  -0.0000014   0.0000365  -0.0000062   0.0000004  -0.0000007
  109   0.0000026   0.0000337   0.0000137   0.0000167  -0.0000299  -0.0000064
  110   0.0000090   0.0000461   0.0000074   0.0000184  -0.0000385  -0.0000068
  111   0.0000107   0.0000047  -0.0000594   0.0000070  -0.0000039  -0.0000001
  112   0.0000000   0.0000002   0.0000015  -0.0000002  -0.0000001  -0.0000000
  113  -0.0000002  -0.0000002   0.0000005  -0.0000000   0.0000001  -0.0000000
  114   0.0000006   0.0000002  -0.0000138   0.0000022  -0.0000000  -0.0000000
  115   0.0000004  -0.0000040  -0.0000058  -0.0000016   0.0000032   0.0000008
  116  -0.0000052  -0.0000325  -0.0000052  -0.0000124   0.0000261   0.0000047
  117  -0.0000051  -0.0000032   0.0000454  -0.0000044   0.0000019  -0.0000006
  118  -0.0000013  -0.0000005   0.0000000   0.0000034   0.0000006  -0.0000021
  119   0.0000007   0.0000002  -0.0000001  -0.0000017  -0.0000002   0.0000010
  120   0.0000007   0.0000002   0.0000015   0.0000002  -0.0000002  -0.0000006
  121  -0.0000000   0.0000000  -0.0000000   0.0000001  -0.0000000   0.0000000
  122   0.0000000  -0.0000000   0.0000001  -0.0000000  -0.0000000  -0.0000000
  123  -0.0000005  -0.0000001  -0.0000013   0.0000000   0.0000001   0.0000004
  124  -0.0000008  -0.0000002  -0.0000011   0.0000006   0.0000006   0.0000001
  125  -0.0000022  -0.0000010   0.0000018   0.0000032   0.0000014  -0.0000019
  126   0.0000047   0.0000013   0.0000010  -0.0000117  -0.0000015   0.0000079
  127  -0.0000001  -0.0000000  -0.0000000   0.0000000   0.0000000  -0.0000000
  128  -0.0000000  -0.0000000   0.0000000   0.0000000   0.0000000  -0.0000000
  129   0.0000001   0.0000000   0.0000002  -0.0000002  -0.0000000   0.0000001
  130  -0.0000000   0.0000000  -0.0000001   0.0000000  -0.0000000  -0.0000000
  131  -0.0000000   0.0000000   0.0000000  -0.0000000   0.0000000   0.0000000
  132   0.0000001   0.0000000   0.0000002  -0.0000005  -0.0000000   0.0000003
  133   0.0000003   0.0000000  -0.0000001  -0.0000011  -0.0000000   0.0000007
  134  -0.0000007  -0.0000000   0.0000000   0.0000017   0.0000000  -0.0000009
  135  -0.0000010  -0.0000002  -0.0000006   0.0000030   0.0000000  -0.0000017
  136   0.0000000   0.0000000   0.0000000  -0.0000001   0.0000000   0.0000000
  137  -0.0000000  -0.0000000   0.0000000   0.0000000   0.0000000  -0.0000000
  138  -0.0000000  -0.0000000  -0.0000000   0.0000001   0.0000000  -0.0000000
  139   0.0000000  -0.0000000  -0.0000000   0.0000000   0.0000000  -0.0000000
  140   0.0000000   0.0000000  -0.0000000   0.0000000  -0.0000000   0.0000000
  141   0.0000000   0.0000000   0.0000000  -0.0000000  -0.0000000  -0.0000000
  142   0.0000000   0.0000000   0.0000000  -0.0000000  -0.0000000   0.0000000
  143   0.0000000   0.0000000  -0.0000000  -0.0000000  -0.0000000   0.0000000
  144  -0.0000000  -0.0000000  -0.0000001   0.0000001   0.0000000  -0.0000001
  145  -0.0000001   0.0000000   0.0000000   0.0000002  -0.0000000  -0.0000001
  146   0.0000001  -0.0000000  -0.0000001  -0.0000002   0.0000001   0.0000001
  147  -0.0000001  -0.0000000   0.0000002   0.0000004   0.0000001  -0.0000003
  148   0.0000001   0.0000000  -0.0000001   0.0000002  -0.0000000  -0.0000002
  149   0.0000002  -0.0000001  -0.0000004   0.0000004   0.0000001  -0.0000003
  150   0.0000001  -0.0000000  -0.0000001   0.0000003   0.0000000  -0.0000002
  151   0.0000000   0.0000000  -0.0000000   0.0000000  -0.0000000  -0.0000000
  152   0.0000000   0.0000000  -0.0000000  -0.0000000   0.0000000   0.0000000
  153   0.0000000   0.0000000   0.0000000  -0.0000001   0.0000000   0.0000001
  154   0.0000000   0.0000000  -0.0000000   0.0000000  -0.0000000  -0.0000000
  155   0.0000000   0.0000000  -0.0000000  -0.0000000  -0.0000000   0.0000000
  156   0.0000000   0.0000000   0.0000000   0.0000000   0.0000000  -0.0000000
  157  -0.0000000  -0.0000000   0.0000000  -0.0000000  -0.0000000   0.0000000
  158  -0.0000000  -0.0000000   0.0000000  -0.0000000   0.0000000   0.0000000
  159   0.0000000   0.0000000   0.0000000   0.0000000  -0.0000000  -0.0000000
  160   0.0000000   0.0000000   0.0000000  -0.0000000   0.0000000   0.0000000
  161   0.0000000  -0.0000000  -0.0000000  -0.0000000   0.0000000   0.0000000
  162  -0.0000000  -0.0000000  -0.0000000   0.0000001  -0.0000000  -0.0000000
  163   0.0000000   0.0000000  -0.0000000  -0.0000000  -0.0000000   0.0000000
  164  -0.0000000  -0.0000000   0.0000000  -0.0000000   0.0000000   0.0000000
  165  -0.0000000  -0.0000000  -0.0000000   0.0000000   0.0000000  -0.0000000
  166   0.0000001  -0.0000000   0.0000000  -0.0000001   0.0000000   0.0000000
  167   0.0000000  -0.0000000   0.0000000   0.0000000  -0.0000000  -0.0000000
  168  -0.0000000  -0.0000000  -0.0000000   0.0000000   0.0000000  -0.0000000
           19          20          21          22          23          24
    1  -0.0000119  -0.0000008   0.0000011  -0.0000031  -0.0000021   0.0000013
    2  -0.0000015  -0.0000003  -0.0000001  -0.0000011   0.0000002   0.0000006
    3   0.0000068   0.0000018  -0.0000010   0.0000008   0.0000000  -0.0000015
    4   0.0000401   0.0000199  -0.0000040   0.0000333   0.0000110  -0.0000038
    5   0.0000133   0.0000106  -0.0000007   0.0000121   0.0000041  -0.0000021
    6  -0.0000176  -0.0000054   0.0000066  -0.0000131  -0.0000076   0.0000048
    7   0.0000291  -0.0000024  -0.0000003  -0.0000019   0.0000121  -0.0000011
    8  -0.0000016  -0.0000040   0.0000019  -0.0000052   0.0000018  -0.0000006
    9  -0.0000080  -0.0000026  -0.0000038  -0.0000012  -0.0000009   0.0000008
   10  -0.0000047  -0.0000017   0.0000016   0.0000047   0.0000032  -0.0000009
   11  -0.0000025  -0.0000006   0.0000014   0.0000032   0.0000014  -0.0000014
   12   0.0000090   0.0000038   0.0000035   0.0000019  -0.0000029  -0.0000012
[...]
   37      C       7.9404658725     1.7000435068     0.2526099143
   38      H       8.8317601359     1.0744653487     0.3301549066
   39      O       8.0344499227     2.9073828225     0.2997681286
   40      C      -4.6262194813    -0.8428866763     0.0092158459
   41      C      -5.5329080876     0.2459840923    -0.0817932320
   42      C      -3.2949495812    -0.6710471352     0.2530400621
   43      C      -6.9171162651     0.0543744818    -0.3371002454
   44      C      -5.0485092064     1.5551207785     0.0865672081
   45      C      -2.8243059652     0.6646633324     0.4215417436
   46      C      -7.7606030656     1.1159736273    -0.4182514105
   47      H      -7.2893893307    -0.9473529305    -0.4659231454
   48      C      -5.9520464074     2.6464102179    -0.0029683564
   49      C      -3.6642918366     1.7282711357     0.3418982335
   50      H      -1.7867797565     0.8468138388     0.6169942631
   51      C      -7.2709197284     2.4341306717    -0.2485202496
   52      H      -8.8073906412     0.9613133103    -0.6121459845
   53      H      -5.5757234506     3.6465481268     0.1269326656
   54      H      -3.2803728579     2.7253876977     0.4743723345
   55      H      -7.9508889016     3.2649226246    -0.3153481779
   56      H      -5.0209837532    -1.8363150307    -0.1213746741
 ----------------------------------------------------------------
 Nuclear Repulsion Energy =  2348.4220402584 hartrees
 There are       99 alpha and       99 beta electrons
 Requested basis set is 6-31G(d,p)
 There are 196 shells and 560 basis functions

Total QAlloc Memory Limit  20000 MB
Mega-Array Size      4888 MB
MEM_STATIC part      5000 MB
 A cutoff of  1.0D-12 yielded   9743 shell pairs
 There are     79510 function pairs
 Smallest overlap matrix eigenvalue = 2.64E-04

  Scale SEOQF with 1.000000e-02/1.000000e-01/1.000000e-01

 Standard Electronic Orientation quadrupole field applied
 Nucleus-field energy     =     0.0000000361 hartrees
 Guess MOs from SCF MO coefficient file
Reading MOs from coefficient file
Reading MOs from coefficient file
 A restricted Hartree-Fock SCF calculation will be
 performed using Pulay DIIS extrapolation
 SCF converges when DIIS error is below 1.0E-10
 ---------------------------------------
  Cycle       Energy         DIIS Error
 ---------------------------------------
    1   -1113.6843862338      2.58E-07
    2   -1113.6843864881      4.00E-08
    3   -1113.6843864881      1.32E-08
    4   -1113.6843864881      3.89E-09
    5   -1113.6843864880      1.73E-09
    6   -1113.6843864881      6.67E-10
    7   -1113.6843864882      2.19E-10
    8   -1113.6843864881      8.54E-11 Convergence criterion met
 ---------------------------------------
 SCF time:  CPU 350.94 s  wall 351.77 s
 SCF   energy in the final basis set = -1113.6843864881
 Total energy in the final basis set = -1113.6843864881
 Direct RCIS calculation will be performed
 Triplet excitation energies requested
 CIS energy converged when residual is below 10e-10
 ---------------------------------------------------
 Iter    Rts Conv    Rts Left    Ttl Dev     Max Dev
 ---------------------------------------------------
   1         0           2      0.000070    0.000038
   2         0           2      0.000600    0.000576
   3         0           2      0.000573    0.000380
   4         0           2      0.000296    0.000205
   5         0           2      0.000182    0.000131
   6         0           2      0.000085    0.000065
   7         0           2      0.000037    0.000032
   8         0           2      0.000018    0.000016
   9         0           2      0.000006    0.000005
  10         0           2      0.000002    0.000002
  11         0           2      0.000001    0.000001
  12         0           2      0.000001    0.000000
  13         0           2      0.000000    0.000000
  14         0           2      0.000000    0.000000
  15         0           2      0.000000    0.000000
  16         0           2      0.000000    0.000000
  17         0           2      0.000000    0.000000
  18         0           2      0.000000    0.000000
  19         0           2      0.000000    0.000000
  20         0           2      0.000000    0.000000
  21         1           1      0.000000    0.000000
  22         2           0      0.000000    0.000000    Roots Converged
 ---------------------------------------------------
 
 
 ---------------------------------------------------
               CIS Excitation Energies              
 ---------------------------------------------------

 Excited state   1: excitation energy (eV) =    2.5577
    Total energy for state   1:  -1113.590392590748
    Multiplicity: Triplet 
    Trans. Mom.:  0.0000 X   0.0000 Y   0.0000 Z
    Strength   :  0.0000
    D( 96) --> V(  4) amplitude =  0.2877
    D( 97) --> V(  1) amplitude =  0.8962

 Excited state   2: excitation energy (eV) =    2.7700
    Total energy for state   2:  -1113.582589112562
    Multiplicity: Triplet 
    Trans. Mom.:  0.0000 X   0.0000 Y   0.0000 Z
    Strength   :  0.0000
    D( 95) --> V(  5) amplitude = -0.3222
    D( 98) --> V(  3) amplitude = -0.3680
    D( 99) --> V(  2) amplitude =  0.8066
 
 ---------------------------------------------------
  Timing summary (seconds)
  CPU time       3297.00s
  System time       0.00s
  Wall time      3301.45s


 Entering the ER Localization Code for CIS excited states. 

NOTE: THIS HAS BEEN ONLY PARTIALLY TESTED FOR THE CASE THAT WE HAVE UNRESTRICTED ORBITALS.
INITIAL CENTER1 LOCATIONS: state 0  Occ x 10.920 y  1.152 z -0.028 Virt x 10.858 y  1.116 z -0.036
INITIAL CENTER1 LOCATIONS: state 1  Occ x -9.996 y  1.655 z  0.001 Virt x -9.964 y  1.682 z  0.008
INITIAL CENTER2 LOCATIONS: state 0  Occ x 126.689 y  6.632 z  2.334 Virt x 126.465 y  7.104 z  2.180
INITIAL CENTER2 LOCATIONS: state 1  Occ x 110.554 y  9.269 z  2.499 Virt x 110.940 y  9.495 z  2.375
INITIAL STANDARD DEVIATIONS: state 0  Occ x  2.726 y  2.303 z  1.527 Virt x  2.927 y  2.421 z  1.476
INITIAL STANDARD DEVIATIONS: state 1  Occ x  3.262 y  2.555 z  1.581 Virt x  3.415 y  2.582 z  1.541
INITIAL : state 0 sum of square of distances to other adiabatic states Occ 437.744490 Virt 433.874036
INITIAL : state 1 sum of square of distances to other adiabatic states Occ 437.744490 Virt 433.874036



Calling Random Orthogonal Matrix...
RandomSeed = 25
location random matrix in checkantisymmetry: max_diff = 0.000000e+00
location random matrix in checkunitary: max_diff = 0.000000e+00
 initially ruedvalue =    1.02144677360758     
showmatrix initial R-Matrix(0,0) =   0.5517580364
showmatrix initial R-Matrix(1,0) =   0.0032585437
showmatrix initial R-Matrix(0,1) =  -0.0039788841
showmatrix initial R-Matrix(1,1) =   0.4696887372
JacSwp  rnd     1 max_diff -9.999000e+03 ruedval     1.0215738145
In RUED_JACOBI SWEEPS for DIABATIC STATES, ending in round     1  because max_diff = 6.505213e-19
showmatrix final R-Matrix(0,0) =   0.5518278789
showmatrix final R-Matrix(1,0) =  -0.0000000231
showmatrix final R-Matrix(0,1) =  -0.0000000231
showmatrix final R-Matrix(1,1) =   0.4697459355
showmatrix final adiabatic -> diabatic RotMatrix(0,0) =   0.9999999999
showmatrix final adiabatic -> diabatic RotMatrix(1,0) =   0.0000113670
showmatrix final adiabatic -> diabatic RotMatrix(0,1) =  -0.0000113670
showmatrix final adiabatic -> diabatic RotMatrix(1,1) =   0.9999999999
location RotMatrix in boys_diabatic_nogs in checkunitary: max_diff = 2.220446e-16
showing H in adiabatic representation: NO coupling elements!!!
showmatrix adiabatH(0,0) =   0.0939938974
showmatrix adiabatH(1,0) =   0.0000000000
showmatrix adiabatH(0,1) =   0.0000000000
showmatrix adiabatH(1,1) =   0.1017973755
getting H in diabatic representation: WITH coupling elements!!!
showmatrix diabatH(0,0) =   0.0939938974
showmatrix diabatH(1,0) =   0.0000000887
showmatrix diabatH(0,1) =   0.0000000887
showmatrix diabatH(1,1) =   0.1017973755
FINAL CENTER LOCATIONS Spin Occ : state 0 x 10.920 y  1.152 z -0.028  Virt x 10.858 y  1.116 z -0.036
FINAL CENTER LOCATIONS Spin Occ : state 1 x -9.996 y  1.655 z  0.001  Virt x -9.964 y  1.682 z  0.008
FINAL CENTER2 LOCATIONS: state 0  Occ x 126.689 y  6.632 z  2.334 Virt x 126.465 y  7.104 z  2.180
FINAL CENTER2 LOCATIONS: state 1  Occ x 110.554 y  9.269 z  2.499 Virt x 110.940 y  9.495 z  2.375
FINAL STANDARD DEVIATIONS: state 0  Occ x  2.726 y  2.303 z  1.527 Virt x  2.927 y  2.421 z  1.476
FINAL STANDARD DEVIATIONS: state 1  Occ x  3.262 y  2.555 z  1.581 Virt x  3.415 y  2.582 z  1.541
FINAL: state 0 sum of square of distances to other Centers Occ 437.744490 Virt 433.874036 
FINAL: state 1 sum of square of distances to other Centers Occ 437.744490 Virt 433.874036 



Calculating ER second derivative! Everything should be negative. If so, we are done.
location hessian --max_diff from checksymmetry = 0.000000e+00
eval of hessian: count 0 eval -3.299505
 STSman time:  CPU 0.00 s  wall 0.00 s

 Analysis of SCF Wavefunction
 
 --------------------------------------------------------------
                    Orbital Energies (a.u.)
 --------------------------------------------------------------
 
 Alpha MOs
 -- Occupied --
-20.547 -11.322 -11.271 -11.259 -11.252 -11.247 -11.243 -11.242
-11.241 -11.238 -11.238 -11.236 -11.233 -11.233 -11.232 -11.232
-11.230 -11.230 -11.229 -11.227 -11.227 -11.226 -11.226 -11.225
-11.222 -11.221 -11.220 -11.220  -1.377  -1.178  -1.163  -1.146
 -1.118  -1.090  -1.053  -1.047  -1.036  -1.034  -1.006  -0.993
 -0.984  -0.965  -0.900  -0.862  -0.851  -0.845  -0.835  -0.820
 -0.812  -0.809  -0.780  -0.768  -0.755  -0.703  -0.702  -0.690
 -0.666  -0.663  -0.649  -0.639  -0.633  -0.622  -0.621  -0.610
 -0.604  -0.600  -0.597  -0.593  -0.591  -0.578  -0.577  -0.573
 -0.562  -0.542  -0.536  -0.529  -0.528  -0.522  -0.509  -0.506
 -0.504  -0.497  -0.495  -0.483  -0.477  -0.476  -0.470  -0.466
 -0.457  -0.443  -0.438  -0.417  -0.416  -0.413  -0.378  -0.355
 -0.316  -0.311  -0.286
 -- Virtual --
  0.071   0.101   0.130   0.141   0.189   0.213   0.218   0.220
  0.232   0.241   0.247   0.250   0.256   0.266   0.274   0.280
  0.282   0.289   0.297   0.304   0.307   0.311   0.320   0.322
  0.325   0.327   0.333   0.334   0.340   0.343   0.349   0.350
  0.353   0.363   0.374   0.383   0.386   0.396   0.409   0.410
  0.421   0.425   0.426   0.431   0.444   0.448   0.456   0.462
  0.471   0.480   0.481   0.488   0.494   0.511   0.514   0.520
  0.522   0.536   0.541   0.545   0.566   0.576   0.594   0.661
  0.692   0.694   0.710   0.713   0.720   0.724   0.729   0.732
  0.735   0.737   0.744   0.746   0.751   0.754   0.757   0.767
  0.780   0.787   0.790   0.793   0.797   0.798   0.802   0.806
  0.813   0.822   0.824   0.831   0.838   0.843   0.847   0.853
  0.862   0.864   0.873   0.880   0.882   0.894   0.905   0.911
  0.916   0.926   0.931   0.936   0.943   0.947   0.956   0.971
  0.977   0.982   0.990   0.995   1.002   1.017   1.026   1.031
  1.038   1.044   1.046   1.057   1.064   1.071   1.072   1.079
  1.080   1.082   1.085   1.088   1.091   1.095   1.097   1.104
  1.106   1.119   1.122   1.126   1.131   1.136   1.137   1.149
  1.156   1.165   1.171   1.175   1.183   1.186   1.190   1.200
  1.203   1.208   1.213   1.215   1.219   1.224   1.228   1.231
  1.232   1.236   1.246   1.258   1.262   1.278   1.285   1.307
  1.308   1.319   1.331   1.341   1.358   1.372   1.382   1.392
  1.399   1.411   1.417   1.438   1.447   1.457   1.467   1.486
  1.497   1.503   1.506   1.511   1.538   1.548   1.558   1.570
  1.584   1.596   1.605   1.615   1.620   1.632   1.652   1.653
  1.655   1.660   1.664   1.678   1.690   1.694   1.705   1.708
  1.716   1.725   1.726   1.731   1.758   1.768   1.778   1.797
  1.802   1.816   1.826   1.834   1.867   1.886   1.903   1.922
  1.941   1.961   1.979   2.004   2.020   2.036   2.038   2.043
  2.050   2.054   2.058   2.087   2.100   2.107   2.110   2.111
  2.117   2.130   2.132   2.141   2.144   2.151   2.170   2.171
  2.180   2.186   2.192   2.194   2.199   2.204   2.208   2.223
  2.225   2.229   2.231   2.237   2.239   2.245   2.252   2.259
  2.273   2.279   2.282   2.289   2.302   2.302   2.310   2.318
  2.339   2.340   2.347   2.366   2.370   2.374   2.384   2.400
  2.404   2.411   2.423   2.439   2.450   2.452   2.461   2.466
  2.477   2.490   2.492   2.506   2.508   2.520   2.525   2.533
  2.548   2.555   2.559   2.568   2.577   2.588   2.597   2.601
  2.608   2.632   2.635   2.641   2.654   2.660   2.667   2.670
  2.673   2.687   2.701   2.707   2.711   2.713   2.716   2.732
  2.736   2.744   2.752   2.756   2.761   2.772   2.773   2.774
  2.788   2.792   2.799   2.806   2.829   2.838   2.842   2.843
  2.855   2.866   2.870   2.877   2.890   2.900   2.902   2.908
  2.920   2.922   2.925   2.932   2.944   2.951   2.954   2.960
  2.975   2.985   2.988   2.995   3.009   3.011   3.022   3.031
  3.043   3.046   3.055   3.067   3.075   3.081   3.090   3.105
  3.115   3.139   3.144   3.158   3.164   3.165   3.172   3.186
  3.191   3.199   3.207   3.213   3.224   3.229   3.234   3.237
  3.270   3.280   3.290   3.301   3.306   3.335   3.343   3.354
  3.362   3.375   3.397   3.407   3.433   3.441   3.483   3.523
  3.533   3.559   3.601   3.631   3.632   3.638   3.661   3.664
  3.673   3.695   3.701   3.711   3.731   3.742   3.747   3.777
  3.791   3.805   3.816   3.827   3.872   3.887   3.888   3.891
  3.907   3.919   3.925   3.930   3.969   3.993   4.169   4.202
  4.317   4.363   4.526   4.547   4.572   4.574   4.585   4.608
  4.617   4.633   4.708   4.748   4.778   4.815   4.831   4.849
  4.867   4.898   4.931   4.942   4.979   5.097   5.135   5.194
  5.222   5.258   5.281   5.302   5.387
 --------------------------------------------------------------
 
          Ground-State Mulliken Net Atomic Charges

     Atom                 Charge (a.u.)
  ----------------------------------------
      1 C                    -0.208723
      2 C                    -0.208171
      3 C                    -0.128625
      4 C                    -0.127065
      5 C                    -0.189497
      6 C                    -0.165308
      7 H                     0.107134
      8 H                     0.116368
      9 H                     0.111254
     10 H                     0.126361
     11 H                     0.109286
     12 H                     0.123890
     13 H                     0.107302
     14 H                     0.128059
     15 H                     0.104854
     16 C                    -0.183988
     17 C                    -0.165415
     18 C                    -0.201952
     19 C                    -0.209343
     20 H                     0.106613
     21 H                     0.123525
     22 H                     0.111205
     23 H                     0.124997
     24 H                     0.120361
     25 H                     0.106294
     26 H                     0.125214
     27 C                     0.026664
     28 C                    -0.174518
     29 C                    -0.153865
     30 C                    -0.109070
     31 H                     0.150857
     32 C                    -0.086438
     33 H                     0.153181
     34 C                    -0.180356
     35 H                     0.164929
     36 H                     0.197235
     37 C                     0.396324
     38 H                     0.106855
     39 O                    -0.539642
     40 C                    -0.164568
     41 C                    -0.024599
     42 C                     0.021540
     43 C                    -0.127453
     44 C                    -0.040555
     45 C                    -0.153235
     46 C                    -0.157829
     47 H                     0.150743
     48 C                    -0.124380
     49 C                    -0.127915
     50 H                     0.141561
     51 C                    -0.160291
     52 H                     0.150295
     53 H                     0.151665
     54 H                     0.152086
     55 H                     0.150281
     56 H                     0.145870
  ----------------------------------------
  Sum of atomic charges =     0.000000

 -----------------------------------------------------------------
                    Cartesian Multipole Moments
 -----------------------------------------------------------------
    Charge (ESU x 10^10)
                 0.0000
    Dipole Moment (Debye)
         X      -2.4744      Y      -3.9096      Z      -0.3465
       Tot       4.6398
    Quadrupole Moments (Debye-Ang)
        XX    -185.2653     XY     -30.3058     YY    -166.9969
        XZ       0.4777     YZ      -0.6293     ZZ    -173.5449
    Octopole Moments (Debye-Ang^2)
       XXX    -251.1143    XXY    -241.2980    XYY    -112.0906
       YYY     -18.7708    XXZ     -31.5331    XYZ     -11.2896
       YYZ      -2.1669    XZZ      25.6345    YZZ      -4.6272
       ZZZ       1.7577
    Hexadecapole Moments (Debye-Ang^3)
      XXXX  -22894.9333   XXXY   -2091.1524   XXYY   -4773.8808
      XYYY    -370.3342   YYYY   -2600.1918   XXXZ     159.1448
      XXYZ     -79.9985   XYYZ     -35.5594   YYYZ      -6.3017
      XXZZ   -4180.7001   XYZZ      59.4135   YYZZ    -607.8510
      XZZZ       5.1202   YZZZ       1.5061   ZZZZ    -913.0364
 -----------------------------------------------------------------
Archival summary:
1\1\fermi.chem.uh.edu\SP\HF\6-31G**\12728\xunmo\SatMar106:56:572014SatMar106:56:572014\0\\#,HF,6-31G**,\\0,1\C\H,1,1.08951\C,1,1.53241,2,107.16\H,3,1.08736,1,109.846,2,60.2562,0\H,3,1.08991,1,109.223,2,176.694,0\C,3,1.53017,1,112.113,2,-61.9605,0\H,6,1.08654,3,110.136,1,-177.645,0\H,6,1.08834,3,109.23,1,65.7126,0\C,1,1.53266,2,108.839,3,120.518,0\H,9,1.08657,1,110.021,2,-59.2282,0\H,9,1.0898,1,107.744,2,-174.852,0\C,1,1.53712,2,107.945,3,-119.095,0\H,12,1.09297,1,107.252,2,179.388,0\C,12,1.53205,1,111.059,2,-63.3656,0\H,14,1.08644,12,109.588,1,68.3104,0\H,14,1.0877,12,109.535,1,-175.955,0\C,14,1.53194,12,112.148,1,-55.0185,0\H,17,1.08599,14,110.227,12,175.926,0\H,17,1.08887,14,107.713,12,-68.3903,0\C,12,1.5326,1,111.179,2,61.8841,0\H,20,1.08724,12,109.815,1,177.734,0\H,20,1.08919,12,109.113,1,-65.975,0\C,6,1.54057,3,111.654,1,-55.6405,0\H,23,1.08914,6,106.971,3,-61.7008,0\C,23,1.51108,6,112.676,3,-179.131,0\C,25,1.44377,23,121.967,6,-62.4517,0\H,26,1.07542,25,118.827,23,0.0657022,0\C,26,1.35446,25,122.217,23,-179.946,0\H,28,1.07206,26,121.988,25,-179.992,0\C,25,1.44683,23,120.903,6,117.592,0\H,30,1.07626,25,118.335,23,-0.0576387,0\C,30,1.35527,25,122.199,23,179.95,0\H,32,1.07535,30,120.875,25,179.99,0\C,32,1.4533,30,120.044,25,-0.00579387,0\C,34,1.4389,32,121.168,30,-179.984,0\H,35,1.09168,34,116.445,32,-0.0120415,0\O,35,1.21191,34,123.237,32,179.986,0\C,9,1.54545,1,115.323,2,65.1712,0\H,38,1.08545,9,105.772,1,161.49,0\C,38,1.52617,9,114.302,1,-84.1271,0\C,40,1.36428,38,118.867,9,-110.911,0\H,41,1.07694,40,119.706,38,-0.316094,0\C,41,1.41986,40,122.547,38,179.706,0\C,43,1.406,41,119.103,40,0.0942866,0\C,44,1.41818,43,118.133,41,0.00707614,0\H,45,1.07665,44,118.899,43,179.905,0\C,45,1.35764,44,121.252,43,-0.0652213,0\H,47,1.07137,45,118.468,44,179.958,0\C,44,1.41962,43,119.271,41,179.965,0\H,49,1.07646,44,118.954,43,-179.989,0\C,49,1.35823,44,120.616,43,0.00740156,0\H,51,1.07566,49,120.288,44,179.997,0\C,51,1.41638,49,120.187,44,-0.0135314,0\H,53,1.07577,51,119.46,49,-179.993,0\C,53,1.35833,51,120.365,49,0,0\H,55,1.0764,53,120.359,51,-179.989,0\\HF=-1113.68439\\@

 Total job time:  4050.76s(wall), 4044.88s(cpu) 
 Sat Mar  1 06:56:57 2014

        *************************************************************
        *                                                           *
        *  Thank you very much for using Q-Chem.  Have a nice day.  *
        *                                                           *
        *************************************************************


0 sent ACK to 0 
now end server 0 ... 
cleanup process ... done
