
Running Job 1 of 4 INP/d26ee
qchem INP/d26ee_36368.0 /home/qchem_scratch/qchem36368/ 1
/home/QCHEM/bin/mpi/mpirun_qchem -machinefile /home/QCHEM/bin/mpi/machines -np 1 /home/QCHEM/exe/qcprog.exe INP/d26ee_36368.0 /home/qchem_scratch/qchem36368/

Process 0 of 1 is on fermi.chem.uh.edu - thread support 0
initial socket setup ...start
initial socket setup ...done 
now start server 0 ... 
                  Welcome to Q-Chem
     A Quantum Leap Into The Future Of Chemistry

 Y. Shao, L. Fusti-Molnar, Y. Jung, J. Kussmann, C. Ochsenfeld, S. T. Brown, 
 A. T. B. Gilbert, L. V. Slipchenko, S. V. Levchenko, D. P. O'Neill, 
 R. A. DiStasio Jr., R. C. Lochan, T. Wang, G. J. O. Beran, N. A. Besley, 
 J. M. Herbert, C. Y. Lin, T. Van Voorhis, S. H. Chien, A. Sodt, R. P. Steele, 
 V. A. Rassolov, P. E. Maslen, P. P. Korambath, R. D. Adamson, B. Austin, 
 J. Baker, E. F. C. Byrd, H. Dachsel, R. J. Doerksen, A. Dreuw, B. D. Dunietz, 
 A. D. Dutoi, T. R. Furlani, S. R. Gwaltney, A. Heyden, S. Hirata, C.-P. Hsu, 
 G. Kedziora, R. Z. Khaliullin, P. Klunzinger, A. M. Lee, M. S. Lee, W. Liang, 
 I. Lotan, N. Nair, B. Peters, E. I. Proynov, P. A. Pieniazek, Y. M. Rhee, 
 J. Ritchie, E. Rosta, C. D. Sherrill, A. C. Simmonett, J. E. Subotnik, 
 H. L. Woodcock III, W. Zhang, A. T. Bell, A. K. Chakraborty, D. M. Chipman, 
 F. J. Keil, A. Warshel, W. J. Hehre, H. F. Schaefer III, J. Kong, 
 A. I. Krylov, P. M. W. Gill, M. Head-Gordon

 Additional authors for Version 3.1: 
 Z. Gan, Y. Zhao, N. E. Schultz, D. Truhlar, E. Epifanovsky, M. Oana

 Additional authors for Version 3.2: 
 R. Baer, B. R. Brooks, D. Casanova, J.-D. Chai, C.-L. Cheng, C. Cramer, 
 D. Crittenden, A. Ghysels, G. Hawkins, E. G. Hohenstein, C. Kelley, 
 W. Kurlancheek, D. Liotard, E. Livshits, P. Manohar, A. Marenich, 
 D. Neuhauser, R. Olson, M. A. Rohrdanz, K. S. Thanthiriwatte, A. J. W. Thom, 
 V. Vanovschi, C. F. Williams, Q. Wu, Z.-Q. You

 Additional authors for Version 4.0: 
 A. Aspuru-Guzik, Y. Bernard, C. Chang, J. Deng, A. Dreuw, M. Diedenhofen, 
 R. G. Edgar, D. Ghosh, W. A. Goddard III, M. Goldey, L. D. Jacobson, 
 M. Gordon, B. Kaduk, I. Kaliman, K. Khistyaev, R. King, A. Klamt, 
 D. Kosenkov, T. Kus, D. Lambrecht, A. Landau, A. W. Lange, K. Lawler, F. Liu, 
 J. Liu, R. Olivares-Amaya, S. P. Mao, J. Parkhill, N. Russ, M. Schmidt, 
 N. Shenvi, D. Small, Y. C. Su, E. Sundstrom, L. Vogt, O. Vydrov, M. Watson, 
 M. Wormit, X. Xu, S. Yeganeh, I. Y. Zhang, D. Zuev

 Additional authors for Version 4.1: 
 X. Feng, M. W. D. Hanson-Heine, P. Horn, H. Ji, A. Laurent, R. Peverati, 
 N. Mardirossian, N. Sergueev, S. Sharada, P. Zimmerman

 Q-Chem, Version 4.1, Q-Chem, Inc., Pittsburgh, PA (2013).

 Parts of Q-Chem use Armadillo 3.6.2 (Piazza del Duomo).
 http://arma.sourceforge.net/

 Intel X86 Linux Version 4.1.2

 Q-chem begins on Fri Feb 28 08:30:07 2014  

Host: 
0

     Scratch files written to /home/qchem_scratch/qchem36368//
 Feb414 28838_zgan 2267   
 Parallel job on  1  processors
Processing $rem in /home/QCHEM/config/preferences.
 MEM_TOTAL  2000 
Finally everything over in PARseQInput

--------------------------------------------------------------
User input:
--------------------------------------------------------------
$comment
C1,3ea
$end
$molecule
0 1
C      -1.5320660514    -0.0914342682     1.7343748722
C      -0.0432945195     0.2448479228     1.8447577153
C       0.7762153245    -0.3969125456     0.7208460622
C       0.2179734183    -0.0009987998    -0.6555967047
C      -1.2717816250    -0.3428513706    -0.7655166872
C      -2.0993340624     0.3013880957     0.3598950471
H       0.0866202713     1.3263208124     1.8097970275
H       0.3362375368    -0.0799739636     2.8107178128
H      -1.6709851965    -1.1584335362     1.8972694630
H      -2.0897982353     0.4158498876     2.5165527597
H       0.3189906644     1.0829819214    -0.7501569679
H      -1.6556990927    -0.0158285151    -1.7285366527
H      -1.3913706656    -1.4248459314    -0.7367158586
H       0.6757983869    -1.4810743937     0.8150155536
C       2.2659080177    -0.0546645604     0.8315721898
C       3.0991320641    -0.6983384095    -0.2936687419
C       2.5265390548    -0.3072035647    -1.6694181845
C       1.0377409627    -0.6436701383    -1.7783766958
H       2.3856829828     1.0273391434     0.8013907749
H       2.6480073628    -0.3800545543     1.7960107518
H       2.6654382946     0.7599796944    -1.8316682677
H       3.0828918244    -0.8138409122    -2.4532133081
H       0.6587371080    -0.3199423102    -2.7447935171
H       0.9082029149    -1.7252101973    -1.7425627868
H       2.9851714451    -1.7771885075    -0.1968587387
C       4.5741432379    -0.3944707407    -0.1697861398
C       5.5365456072    -1.4548582493     0.0365434441
C       5.0863395407     0.9529719695    -0.2512650089
C       6.8650190989    -1.2122124027     0.1507862643
H       5.1758355726    -2.4668892089     0.1000277500
C       6.4073602417     1.2311379002    -0.1413183073
H       4.3948067444     1.7621985608    -0.4044349338
C       7.3658131760     0.1495265006     0.0668825156
H       7.5617942269    -2.0168671038     0.3038045027
H       6.7837173966     2.2331021985    -0.2023714511
C       8.7712131528     0.4347343183     0.1850453030
H       9.4298656926    -0.4220730688     0.3394012178
O       9.2293803828     1.5548648078     0.1209472503
C      -5.3876101231    -1.6186430269     0.2085477903
C      -6.3401559252    -0.5848158785     0.0050247070
C      -4.0653568211    -1.3384409949     0.3187085956
C      -7.7301738159    -0.8440152872    -0.1143481079
C      -5.8794126075     0.7415406972    -0.0799915854
C      -3.5824742738    -0.0000915057     0.2347074357
C      -8.6107505835     0.1723914067    -0.3085380458
H      -8.0778243383    -1.8606950210    -0.0485730238
C      -6.8224905631     1.7832332339    -0.2832326519
C      -4.4866144978     0.9986289699     0.0398521951
C      -8.1484202174     1.5075414826    -0.3942467572
H      -9.6631303122    -0.0313878189    -0.3981300236
H      -6.4709311006     2.7985375292    -0.3483505057
H      -4.1509815999     2.0199156967    -0.0275089036
H      -8.8552086864     2.3038262343    -0.5480991591
H      -5.7312565378    -2.6367570752     0.2749704488
H      -1.9865018103     1.3797910423     0.2634330360
H      -3.3691971746    -2.1436235899     0.4725618846
$end


$rem
MEM_TOTAL	20000
MEM_STATIC	5000
JOBTYPE    freq 
SYMMETRY   FALSE
EXCHANGE     	HF
CORRELATION  	none  (built-in)
BASIS       	6-31g** 
cis_state_deriv   1
cis_n_roots       3
cis_singlets      false
cis_triplets      true
max_scf_cycles=100
max_cis_cycles=100
$end

--------------------------------------------------------------
 ----------------------------------------------------------------
             Standard Nuclear Orientation (Angstroms)
    I     Atom           X                Y                Z
 ----------------------------------------------------------------
    1      C      -1.5320660514    -0.0914342682     1.7343748722
    2      C      -0.0432945195     0.2448479228     1.8447577153
    3      C       0.7762153245    -0.3969125456     0.7208460622
    4      C       0.2179734183    -0.0009987998    -0.6555967047
    5      C      -1.2717816250    -0.3428513706    -0.7655166872
    6      C      -2.0993340624     0.3013880957     0.3598950471
    7      H       0.0866202713     1.3263208124     1.8097970275
    8      H       0.3362375368    -0.0799739636     2.8107178128
    9      H      -1.6709851965    -1.1584335362     1.8972694630
   10      H      -2.0897982353     0.4158498876     2.5165527597
   11      H       0.3189906644     1.0829819214    -0.7501569679
   12      H      -1.6556990927    -0.0158285151    -1.7285366527
   13      H      -1.3913706656    -1.4248459314    -0.7367158586
   14      H       0.6757983869    -1.4810743937     0.8150155536
   15      C       2.2659080177    -0.0546645604     0.8315721898
   16      C       3.0991320641    -0.6983384095    -0.2936687419
   17      C       2.5265390548    -0.3072035647    -1.6694181845
   18      C       1.0377409627    -0.6436701383    -1.7783766958
   19      H       2.3856829828     1.0273391434     0.8013907749
   20      H       2.6480073628    -0.3800545543     1.7960107518
   21      H       2.6654382946     0.7599796944    -1.8316682677
   22      H       3.0828918244    -0.8138409122    -2.4532133081
   23      H       0.6587371080    -0.3199423102    -2.7447935171
   24      H       0.9082029149    -1.7252101973    -1.7425627868
   25      H       2.9851714451    -1.7771885075    -0.1968587387
   26      C       4.5741432379    -0.3944707407    -0.1697861398
   27      C       5.5365456072    -1.4548582493     0.0365434441
   28      C       5.0863395407     0.9529719695    -0.2512650089
   29      C       6.8650190989    -1.2122124027     0.1507862643
   30      H       5.1758355726    -2.4668892089     0.1000277500
   31      C       6.4073602417     1.2311379002    -0.1413183073
   32      H       4.3948067444     1.7621985608    -0.4044349338
   33      C       7.3658131760     0.1495265006     0.0668825156
   34      H       7.5617942269    -2.0168671038     0.3038045027
   35      H       6.7837173966     2.2331021985    -0.2023714511
   36      C       8.7712131528     0.4347343183     0.1850453030
   37      H       9.4298656926    -0.4220730688     0.3394012178
   38      O       9.2293803828     1.5548648078     0.1209472503
   39      C      -5.3876101231    -1.6186430269     0.2085477903
   40      C      -6.3401559252    -0.5848158785     0.0050247070
   41      C      -4.0653568211    -1.3384409949     0.3187085956
   42      C      -7.7301738159    -0.8440152872    -0.1143481079
   43      C      -5.8794126075     0.7415406972    -0.0799915854
   44      C      -3.5824742738    -0.0000915057     0.2347074357
   45      C      -8.6107505835     0.1723914067    -0.3085380458
   46      H      -8.0778243383    -1.8606950210    -0.0485730238
   47      C      -6.8224905631     1.7832332339    -0.2832326519
   48      C      -4.4866144978     0.9986289699     0.0398521951
   49      C      -8.1484202174     1.5075414826    -0.3942467572
   50      H      -9.6631303122    -0.0313878189    -0.3981300236
   51      H      -6.4709311006     2.7985375292    -0.3483505057
   52      H      -4.1509815999     2.0199156967    -0.0275089036
   53      H      -8.8552086864     2.3038262343    -0.5480991591
   54      H      -5.7312565378    -2.6367570752     0.2749704488
   55      H      -1.9865018103     1.3797910423     0.2634330360
   56      H      -3.3691971746    -2.1436235899     0.4725618846
 ----------------------------------------------------------------
 Molecular Point Group                 C1    NOp =  1
 Largest Abelian Subgroup              C1    NOp =  1
 Nuclear Repulsion Energy =  2301.9216657151 hartrees
 There are       99 alpha and       99 beta electrons
 Requested basis set is 6-31G(d,p)
 There are 196 shells and 560 basis functions

Total QAlloc Memory Limit  20000 MB
Mega-Array Size      4888 MB
MEM_STATIC part      5000 MB
 A cutoff of  1.0D-11 yielded   8928 shell pairs
 There are     73077 function pairs
 Smallest overlap matrix eigenvalue = 2.65E-04
 Guess from superposition of atomic densities
 Warning:  Energy on first SCF cycle will be non-variational
 A restricted Hartree-Fock SCF calculation will be
 performed using Pulay DIIS extrapolation
 SCF converges when DIIS error is below 1.0E-08
 ---------------------------------------
  Cycle       Energy         DIIS Error
 ---------------------------------------
    1   -1125.9944389397      3.36E-02
    2   -1113.3312612102      2.58E-03
    3   -1113.6282735284      1.34E-03
    4   -1113.6812109400      5.42E-04
    5   -1113.6926885798      6.11E-05
    6   -1113.6929321834      3.01E-05
    7   -1113.6930017927      1.33E-05
    8   -1113.6930204045      6.02E-06
    9   -1113.6930247528      1.80E-06
   10   -1113.6930251891      7.94E-07
   11   -1113.6930252824      3.96E-07
   12   -1113.6930253154      1.72E-07
   13   -1113.6930253218      6.83E-08
   14   -1113.6930253220      2.07E-08
   15   -1113.6930253217      6.51E-09 Convergence criterion met
 ---------------------------------------
 SCF time:  CPU 688.62 s  wall 694.36 s
 SCF   energy in the final basis set = -1113.6930253217
 Total energy in the final basis set = -1113.6930253217
 Direct RCIS calculation will be performed
 Triplet excitation energies requested
 CIS energy converged when residual is below 10e- 6
 ---------------------------------------------------
 Iter    Rts Conv    Rts Left    Ttl Dev     Max Dev
 ---------------------------------------------------
   1         0           3      0.000428    0.000365
   2         0           3      0.000260    0.000134
   3         0           3      0.000591    0.000303
   4         0           3      0.000271    0.000130
   5         0           3      0.000220    0.000123
   6         0           3      0.000088    0.000056
   7         0           3      0.000033    0.000022
   8         1           2      0.000014    0.000010
   9         1           2      0.000011    0.000008
  10         1           2      0.000020    0.000018
  11         2           1      0.000138    0.000136
  12         2           1      0.000042    0.000041
  13         2           1      0.000021    0.000020
  14         2           1      0.000011    0.000010
  15         2           1      0.000007    0.000006
  16         2           1      0.000004    0.000003
  17         2           1      0.000002    0.000001
  18         3           0      0.000002    0.000001    Roots Converged
 ---------------------------------------------------
 
 
 ---------------------------------------------------
               CIS Excitation Energies              
 ---------------------------------------------------

 Excited state   1: excitation energy (eV) =    2.5576
    Total energy for state   1:  -1113.599033667384
    Multiplicity: Triplet 
    Trans. Mom.:  0.0000 X   0.0000 Y   0.0000 Z
    Strength   :  0.0000
    D( 96) --> V(  4) amplitude =  0.2876
    D( 97) --> V(  1) amplitude =  0.8943

 Excited state   2: excitation energy (eV) =    2.7870
    Total energy for state   2:  -1113.590606716724
    Multiplicity: Triplet 
    Trans. Mom.:  0.0000 X   0.0000 Y   0.0000 Z
    Strength   :  0.0000
    D( 95) --> V(  5) amplitude =  0.3248
    D( 98) --> V(  3) amplitude = -0.3746
    D( 99) --> V(  2) amplitude =  0.8034

 Excited state   3: excitation energy (eV) =    4.1620
    Total energy for state   3:  -1113.540075117110
    Multiplicity: Triplet 
    Trans. Mom.:  0.0000 X   0.0000 Y   0.0000 Z
    Strength   :  0.0000
    D( 95) --> V(  2) amplitude = -0.6613
    D( 99) --> V(  5) amplitude = -0.6479
 
 ---------------------------------------------------
 Calculating Relaxed Density
 ---------------------------------------------------
 Iter    Rts Conv    Rts Left    Ttl Dev     Max Dev
 ---------------------------------------------------
   1         0           3      0.000226    0.000129
   2         0           3      0.000073    0.000046
   3         0           3      0.000044    0.000033
   4         0           3      0.000013    0.000009
   5         1           2      0.000004    0.000003
   6         2           1      0.000001    0.000001
   7         3           0      0.000000    0.000000    Roots Converged
 ---------------------------------------------------
  Timing summary (seconds)
  CPU time       3016.98s
  System time       0.00s
  Wall time      3019.23s
 STSman time:  CPU 0.00 s  wall 0.00 s

 Analysis of SCF Wavefunction
 
 --------------------------------------------------------------
                    Orbital Energies (a.u.)
 --------------------------------------------------------------
 
 Alpha MOs
 -- Occupied --
-20.547 -11.322 -11.272 -11.259 -11.252 -11.248 -11.243 -11.242
-11.241 -11.238 -11.236 -11.236 -11.232 -11.232 -11.232 -11.231
-11.230 -11.229 -11.229 -11.227 -11.227 -11.227 -11.226 -11.226
-11.222 -11.221 -11.220 -11.220  -1.377  -1.178  -1.163  -1.147
 -1.120  -1.091  -1.053  -1.047  -1.037  -1.034  -1.007  -0.992
 -0.983  -0.965  -0.899  -0.862  -0.848  -0.845  -0.835  -0.820
 -0.812  -0.805  -0.780  -0.767  -0.765  -0.703  -0.700  -0.689
 -0.672  -0.666  -0.650  -0.637  -0.630  -0.622  -0.620  -0.612
 -0.603  -0.601  -0.597  -0.592  -0.588  -0.582  -0.577  -0.565
 -0.562  -0.545  -0.539  -0.531  -0.526  -0.521  -0.510  -0.506
 -0.505  -0.496  -0.492  -0.483  -0.477  -0.475  -0.471  -0.467
 -0.457  -0.454  -0.437  -0.418  -0.416  -0.413  -0.378  -0.355
 -0.316  -0.310  -0.286
 -- Virtual --
  0.071   0.103   0.131   0.141   0.190   0.215   0.220   0.224
  0.232   0.242   0.244   0.247   0.253   0.263   0.272   0.279
  0.283   0.288   0.297   0.306   0.309   0.310   0.316   0.317
  0.322   0.326   0.331   0.334   0.336   0.342   0.347   0.351
  0.353   0.364   0.371   0.374   0.392   0.395   0.404   0.411
  0.412   0.419   0.426   0.432   0.442   0.446   0.455   0.469
  0.472   0.477   0.485   0.488   0.490   0.498   0.507   0.515
  0.529   0.532   0.542   0.553   0.569   0.582   0.594   0.667
  0.691   0.695   0.705   0.714   0.718   0.721   0.728   0.729
  0.735   0.743   0.744   0.746   0.750   0.753   0.755   0.768
  0.770   0.785   0.787   0.793   0.795   0.798   0.801   0.808
  0.813   0.817   0.824   0.826   0.835   0.843   0.846   0.853
  0.862   0.869   0.873   0.879   0.882   0.897   0.909   0.910
  0.921   0.929   0.935   0.939   0.943   0.950   0.962   0.968
  0.975   0.984   0.989   0.994   1.002   1.006   1.026   1.031
  1.038   1.046   1.048   1.057   1.066   1.071   1.074   1.079
  1.081   1.081   1.083   1.087   1.090   1.093   1.100   1.105
  1.109   1.115   1.119   1.122   1.132   1.132   1.135   1.140
  1.148   1.161   1.171   1.175   1.178   1.182   1.189   1.194
  1.195   1.206   1.209   1.212   1.217   1.219   1.223   1.228
  1.233   1.241   1.248   1.255   1.261   1.265   1.286   1.292
  1.308   1.321   1.332   1.345   1.368   1.380   1.387   1.399
  1.406   1.415   1.426   1.440   1.455   1.458   1.468   1.484
  1.498   1.508   1.511   1.519   1.538   1.549   1.561   1.570
  1.599   1.602   1.609   1.623   1.628   1.633   1.652   1.653
  1.657   1.660   1.667   1.673   1.681   1.691   1.698   1.707
  1.715   1.719   1.722   1.731   1.766   1.767   1.779   1.790
  1.808   1.816   1.824   1.832   1.845   1.887   1.907   1.917
  1.947   1.962   1.970   1.988   1.997   2.026   2.039   2.046
  2.050   2.054   2.064   2.086   2.102   2.107   2.111   2.113
  2.123   2.130   2.135   2.138   2.145   2.149   2.159   2.172
  2.174   2.179   2.186   2.198   2.201   2.204   2.208   2.211
  2.219   2.229   2.233   2.235   2.240   2.247   2.259   2.266
  2.268   2.273   2.280   2.290   2.293   2.302   2.311   2.320
  2.327   2.341   2.347   2.353   2.366   2.374   2.377   2.390
  2.398   2.413   2.422   2.435   2.446   2.449   2.455   2.460
  2.462   2.488   2.500   2.502   2.508   2.511   2.524   2.531
  2.550   2.562   2.568   2.578   2.588   2.594   2.599   2.610
  2.628   2.634   2.635   2.647   2.657   2.666   2.670   2.674
  2.675   2.683   2.696   2.706   2.709   2.716   2.717   2.724
  2.734   2.745   2.748   2.756   2.762   2.769   2.777   2.779
  2.788   2.792   2.796   2.808   2.820   2.832   2.836   2.844
  2.855   2.872   2.878   2.884   2.891   2.895   2.901   2.907
  2.910   2.926   2.930   2.932   2.946   2.947   2.954   2.959
  2.972   2.975   2.988   3.008   3.013   3.020   3.029   3.038
  3.049   3.055   3.060   3.077   3.081   3.086   3.088   3.107
  3.114   3.146   3.154   3.161   3.163   3.174   3.176   3.188
  3.192   3.199   3.211   3.217   3.220   3.228   3.232   3.244
  3.250   3.277   3.299   3.304   3.327   3.336   3.356   3.365
  3.370   3.386   3.405   3.411   3.434   3.443   3.490   3.523
  3.534   3.556   3.591   3.631   3.633   3.637   3.644   3.661
  3.665   3.689   3.697   3.701   3.719   3.733   3.739   3.768
  3.793   3.800   3.811   3.824   3.866   3.878   3.888   3.890
  3.918   3.921   3.925   3.935   3.979   3.991   4.171   4.202
  4.317   4.363   4.526   4.547   4.573   4.575   4.585   4.613
  4.619   4.648   4.710   4.749   4.791   4.807   4.837   4.847
  4.862   4.883   4.930   4.945   4.951   5.087   5.134   5.193
  5.235   5.266   5.282   5.291   5.384
 --------------------------------------------------------------
 
          Ground-State Mulliken Net Atomic Charges

     Atom                 Charge (a.u.)
  ----------------------------------------
      1 C                    -0.201252
      2 C                    -0.208134
      3 C                    -0.127783
      4 C                    -0.127486
      5 C                    -0.184147
      6 C                    -0.159466
      7 H                     0.107324
      8 H                     0.116274
      9 H                     0.106733
     10 H                     0.124736
     11 H                     0.105903
     12 H                     0.122817
     13 H                     0.104665
     14 H                     0.105157
     15 C                    -0.184685
     16 C                    -0.165661
     17 C                    -0.201980
     18 C                    -0.208593
     19 H                     0.109011
     20 H                     0.123458
     21 H                     0.111171
     22 H                     0.125103
     23 H                     0.119376
     24 H                     0.107126
     25 H                     0.125058
     26 C                     0.026593
     27 C                    -0.174496
     28 C                    -0.153987
     29 C                    -0.109094
     30 H                     0.150827
     31 C                    -0.086466
     32 H                     0.153521
     33 C                    -0.180341
     34 H                     0.164944
     35 H                     0.197274
     36 C                     0.396316
     37 H                     0.106868
     38 O                    -0.539612
     39 C                    -0.125769
     40 C                    -0.041199
     41 C                    -0.149105
     42 C                    -0.125442
     43 C                    -0.026884
     44 C                     0.010688
     45 C                    -0.160275
     46 H                     0.151015
     47 C                    -0.127561
     48 C                    -0.160165
     49 C                    -0.157933
     50 H                     0.149865
     51 H                     0.150474
     52 H                     0.146726
     53 H                     0.150083
     54 H                     0.151818
     55 H                     0.119912
     56 H                     0.146682
  ----------------------------------------
  Sum of atomic charges =     0.000000

 -----------------------------------------------------------------
                    Cartesian Multipole Moments
 -----------------------------------------------------------------
    Charge (ESU x 10^10)
                 0.0000
    Dipole Moment (Debye)
         X      -3.3459      Y      -2.7874      Z      -0.0352
       Tot       4.3550
    Quadrupole Moments (Debye-Ang)
        XX    -207.3211     XY     -26.2924     YY    -158.1631
        XZ       1.7891     YZ      -2.6769     ZZ    -173.5103
    Octopole Moments (Debye-Ang^2)
       XXX    -553.8784    XXY    -253.6368    XYY     -38.9990
       YYY      -2.2193    XXZ      -6.7199    XYZ      -1.1523
       YYZ      -0.8222    XZZ      33.8163    YZZ       2.3096
       ZZZ       1.8237
    Hexadecapole Moments (Debye-Ang^3)
      XXXX  -31842.2776   XXXY   -2383.5029   XXYY   -4870.5912
      XYYY     -42.1072   YYYY   -1095.9831   XXXZ     262.9631
      XXYZ    -123.6133   XYYZ       4.3453   YYYZ     -17.1966
      XXZZ   -5200.0104   XYZZ      23.6990   YYZZ    -361.3921
      XZZZ      -4.1290   YZZZ       2.7520   ZZZZ    -891.7528
 -----------------------------------------------------------------
 Calculating MO derivatives via CPSCF
   1         3         168      0.153529    0.018601
   2         3         168      0.030611    0.004873
   3         3         168      0.005947    0.001172
   4        25         146      0.000837    0.000176
   5       158          13      0.000050    0.000019
   6       169           2      0.000004    0.000002
   7       171           0      0.000000    0.000000    Roots Converged
 Calculating CIS amplitude derivatives via CPCIS
 CIS relaxed dipole moment
            1
    1   0.2656197
    2   0.0532079
    3   0.0160042
	Magnitude:	 0.271 au	 0.690 Debye
 CIS Excitation Energy is    0.0939916543
 Gradient of the CIS Excitation Energy
            1           2           3           4           5           6
    1   0.0000192   0.0002800   0.0001703  -0.0000364  -0.0000051  -0.0000071
    2  -0.0000921   0.0001561  -0.0007164   0.0001448  -0.0000628   0.0000461
    3  -0.0001098   0.0001825  -0.0005560  -0.0000167  -0.0000053   0.0000070
            7           8           9          10          11          12
    1   0.0000009  -0.0000075   0.0000013   0.0000754   0.0000056   0.0000232
    2  -0.0000216   0.0000113   0.0000184  -0.0000003  -0.0000252   0.0000019
    3   0.0000024  -0.0000261   0.0000065  -0.0000188   0.0000033   0.0000169
           13          14          15          16          17          18
    1  -0.0000005  -0.0000512   0.0012965  -0.0042983   0.0014141   0.0001085
    2   0.0000112   0.0000234   0.0010136  -0.0019221   0.0008679  -0.0005476
    3  -0.0000044   0.0000110   0.0007764  -0.0002150  -0.0006924   0.0006644
           19          20          21          22          23          24
    1   0.0001176   0.0000124   0.0000929  -0.0000034   0.0003431  -0.0000504
    2  -0.0003172   0.0000747  -0.0002995   0.0000881   0.0000354   0.0000305
    3  -0.0000598  -0.0000931   0.0001466   0.0000751   0.0000765  -0.0000416
           25          26          27          28          29          30
    1   0.0005390   0.0506385  -0.0569808  -0.0370055   0.0399884  -0.0010983
    2   0.0004280   0.0047657   0.0236783  -0.0371763   0.0620917   0.0002115
    3   0.0000126   0.0047747  -0.0083082  -0.0001375  -0.0020342  -0.0001348
           31          32          33          34          35          36
    1   0.0545839  -0.0008322  -0.0714635   0.0003890   0.0003893   0.0264264
    2  -0.0430088  -0.0003778  -0.0160358  -0.0008018   0.0008773   0.0358804
    3   0.0099969  -0.0000465  -0.0058565   0.0001240  -0.0000455  -0.0008368
           37          38          39          40          41          42
    1   0.0011161  -0.0062135  -0.0000093   0.0000135   0.0000339  -0.0000094
    2  -0.0010568  -0.0279700  -0.0000059   0.0000108   0.0000129  -0.0000165
    3   0.0002226   0.0021509  -0.0000014   0.0000008  -0.0000004   0.0000001
           43          44          45          46          47          48
    1  -0.0000174  -0.0000538   0.0000097   0.0000011   0.0000113   0.0000364
    2  -0.0000062  -0.0000366  -0.0000050   0.0000048   0.0000134   0.0000146
    3   0.0000014  -0.0000161   0.0000012   0.0000000  -0.0000009   0.0000001
           49          50          51          52          53          54
    1   0.0000045   0.0000061  -0.0000038  -0.0000059   0.0000048   0.0000051
    2   0.0000044   0.0000005  -0.0000010   0.0000044  -0.0000037   0.0000052
    3  -0.0000005   0.0000008   0.0000004  -0.0000004   0.0000011   0.0000006
           55          56
    1   0.0000010  -0.0000055
    2  -0.0000031  -0.0000170
    3  -0.0000020   0.0000039
gradient:-0.000016
gradient:0.000092
gradient:0.000110
gradient:-0.000280
gradient:-0.000158
gradient:-0.000186
gradient:-0.000171
gradient:0.000717
gradient:0.000562
gradient:0.000033
gradient:-0.000142
gradient:0.000014
gradient:0.000007
gradient:0.000062
gradient:0.000005
gradient:0.000008
gradient:-0.000046
gradient:-0.000006
gradient:-0.000001
gradient:0.000020
gradient:-0.000002
gradient:0.000007
gradient:-0.000011
gradient:0.000025
gradient:-0.000001
gradient:-0.000018
gradient:-0.000007
gradient:-0.000075
gradient:0.000000
gradient:0.000019
gradient:-0.000006
gradient:0.000025
gradient:-0.000004
gradient:-0.000023
gradient:-0.000002
gradient:-0.000016
gradient:0.000001
gradient:-0.000010
gradient:0.000004
gradient:0.000051
gradient:-0.000024
gradient:-0.000011
gradient:-0.001297
gradient:-0.001017
gradient:-0.000780
gradient:0.004289
gradient:0.001931
gradient:0.000213
gradient:-0.001418
gradient:-0.000870
gradient:0.000697
gradient:-0.000106
gradient:0.000547
gradient:-0.000665
gradient:-0.000119
gradient:0.000318
gradient:0.000060
gradient:-0.000014
gradient:-0.000075
gradient:0.000093
gradient:-0.000094
gradient:0.000300
gradient:-0.000147
gradient:0.000002
gradient:-0.000088
gradient:-0.000075
gradient:-0.000343
gradient:-0.000036
gradient:-0.000076
gradient:0.000050
gradient:-0.000030
gradient:0.000042
gradient:-0.000542
gradient:-0.000429
gradient:-0.000013
gradient:-0.050632
gradient:-0.004780
gradient:-0.004773
gradient:0.056975
gradient:-0.023670
gradient:0.008307
gradient:0.037027
gradient:0.037183
gradient:0.000139
gradient:-0.039990
gradient:-0.062083
gradient:0.002033
gradient:0.001099
gradient:-0.000216
gradient:0.000135
gradient:-0.054608
gradient:0.043005
gradient:-0.009999
gradient:0.000835
gradient:0.000380
gradient:0.000046
gradient:0.071432
gradient:0.016023
gradient:0.005855
gradient:-0.000383
gradient:0.000798
gradient:-0.000123
gradient:-0.000387
gradient:-0.000874
gradient:0.000045
gradient:-0.026413
gradient:-0.035907
gradient:0.000841
gradient:-0.001109
gradient:0.001055
gradient:-0.000221
gradient:0.006232
gradient:0.028004
gradient:-0.002152
gradient:0.000009
gradient:0.000007
gradient:0.000001
gradient:-0.000014
gradient:-0.000011
gradient:-0.000001
gradient:-0.000033
gradient:-0.000012
gradient:0.000000
gradient:0.000010
gradient:0.000017
gradient:-0.000000
gradient:0.000018
gradient:0.000007
gradient:-0.000001
gradient:0.000054
gradient:0.000037
gradient:0.000016
gradient:-0.000010
gradient:0.000005
gradient:-0.000001
gradient:-0.000001
gradient:-0.000005
gradient:0.000000
gradient:-0.000011
gradient:-0.000014
gradient:0.000001
gradient:-0.000035
gradient:-0.000017
gradient:-0.000000
gradient:-0.000005
gradient:-0.000004
gradient:0.000000
gradient:-0.000007
gradient:-0.000000
gradient:-0.000001
gradient:0.000004
gradient:0.000001
gradient:-0.000000
gradient:0.000006
gradient:-0.000005
gradient:0.000000
gradient:-0.000005
gradient:0.000004
gradient:-0.000001
gradient:-0.000005
gradient:-0.000006
gradient:-0.000001
gradient:-0.000001
gradient:0.000003
gradient:0.000002
gradient:0.000006
gradient:0.000017
gradient:-0.000004
gradient:0.265879
gradient:0.053064
gradient:0.016038
   1        76          95      0.014060    0.003174
   2       103          68      0.002634    0.000394
   3       130          41      0.000517    0.000058
   4       142          29      0.000109    0.000012
   5       162           9      0.000015    0.000002
   6       171           0      0.000000    0.000000    Roots Converged
 CPCIS time:  CPU 12948.72 s  wall 12988.82 s
 transition dipole derivative
            1           2           3
    1  -0.0033243  -0.0002607   0.0003215
    2  -0.0047257  -0.0016957   0.0010320
    3  -0.0046441  -0.0011318   0.0011956
    4   0.0091580   0.0026900  -0.0024733
    5   0.0090419   0.0001128  -0.0024163
    6   0.0103417   0.0023685  -0.0039986
    7  -0.0274930  -0.0061702   0.0001777
    8  -0.0193908   0.0031320   0.0067383
    9  -0.0201197  -0.0057605   0.0096370
   10   0.0008352  -0.0002373  -0.0003519
   11   0.0047231   0.0008584   0.0007080
   12  -0.0009020   0.0002160   0.0021737
   13  -0.0002013  -0.0005677   0.0000518
   14  -0.0022224  -0.0011244  -0.0001953
   15  -0.0001611  -0.0001009  -0.0007682
   16  -0.0007284  -0.0001488   0.0003002
   17   0.0021804   0.0004164   0.0001473
   18   0.0004534   0.0003459   0.0003482
   19  -0.0003392  -0.0004392   0.0001859
   20  -0.0011872   0.0007866   0.0000837
   21  -0.0000341  -0.0001779   0.0000509
   22  -0.0005335   0.0000538   0.0001673
   23   0.0002550  -0.0001157  -0.0000317
   24  -0.0007188  -0.0010817   0.0003244
   25   0.0001175   0.0002325  -0.0000510
   26   0.0007989   0.0007253  -0.0001096
   27   0.0003381   0.0001704  -0.0000152
   28   0.0029241   0.0011329  -0.0003402
   29   0.0001564  -0.0002119  -0.0001806
   30  -0.0003957  -0.0003726  -0.0003211
   31   0.0000402  -0.0006851   0.0001037
   32  -0.0009751   0.0011796  -0.0002619
   33   0.0001502  -0.0000383  -0.0002684
   34   0.0011729   0.0004634  -0.0002781
   35   0.0000450  -0.0000436  -0.0000196
   36   0.0009650   0.0002117  -0.0000431
   37  -0.0000104   0.0002809  -0.0000344
   38   0.0003266   0.0005811  -0.0000333
   39  -0.0001888  -0.0001246   0.0000204
   40   0.0013755   0.0056181  -0.0002843
   41   0.0018824   0.0042405  -0.0009013
   42   0.0006194   0.0001892  -0.0000329
   43  -0.0437959   0.0387504  -0.0020943
   44   0.0753995  -0.0027181  -0.0226768
   45   0.0940669  -0.0066972  -0.0669157
   46   0.4020449  -0.0217585   0.0163437
   47  -0.0535833   0.0039134   0.0199611
   48   0.0188487   0.0234025   0.2592781
   49  -0.0272018   0.0375226   0.0018476
   50   0.0506728   0.0021944   0.0197593
   51  -0.0972604  -0.0015074  -0.0916217
   52  -0.0259894  -0.0072922  -0.0042688
   53  -0.0128927   0.0035147  -0.0079082
   54   0.0146568   0.0048406   0.0133676
   55   0.0000447  -0.0196373   0.0013206
   56  -0.0069242   0.0238321   0.0003967
   57  -0.0019328   0.0105579   0.0018821
   58  -0.0066794   0.0023764  -0.0040552
   59   0.0000974  -0.0058201  -0.0004537
   60  -0.0071091  -0.0059534   0.0052592
   61  -0.0006043  -0.0164010   0.0014146
   62  -0.0058125   0.0207295  -0.0055352
   63   0.0024932  -0.0181589   0.0059935
   64  -0.0080706   0.0014278   0.0010705
   65   0.0009327  -0.0040691   0.0026162
   66   0.0045596   0.0085364   0.0050907
   67   0.0067872   0.0035353   0.0029580
   68   0.0024575  -0.0005675   0.0016766
   69  -0.0022199   0.0016169  -0.0033421
   70   0.0015279   0.0058800  -0.0005525
   71   0.0020633   0.0041336   0.0004202
   72  -0.0011540   0.0000962  -0.0003537
   73  -0.0059714   0.0412223  -0.0046301
   74  -0.0003807   0.0310614  -0.0032290
   75  -0.0005015   0.0009876  -0.0011333
   76  -1.5273540   0.6408961  -0.1230365
   77   0.2576458  -3.7270336   0.3047296
   78  -0.0861531   0.3447403  -0.9923879
   79   2.8204078  -1.1490849   0.3437812
   80  -0.3243040   1.5938877  -0.1310154
   81   0.2625708  -0.2173150   0.6685672
   82   2.2947300   1.3800718   0.0357040
   83   0.8100975   2.0880076  -0.0623021
   84   0.0931327  -0.0023967   0.6340584
   85  -2.4181820  -0.8549506  -0.0977770
   86  -0.7922782  -1.7819682   0.0298416
   87  -0.1043756   0.0233822  -0.6706218
   88  -0.0030877  -0.0370524   0.0118541
   89  -0.0136170  -0.0078538  -0.0087401
   90   0.0095086  -0.0111338  -0.0791287
   91  -2.7647709   0.1131364  -0.2301672
   92   0.1794472  -1.4362645   0.0961068
   93  -0.2370126   0.0889694  -0.6978013
   94  -0.0130767   0.0222792   0.0044271
   95   0.0122216   0.0048908  -0.0069094
   96   0.0054428  -0.0059533  -0.0755423
   97   2.0748262   0.4018174   0.0826752
   98   0.0010862   3.0005981  -0.2101616
   99   0.1227533  -0.1681903   0.9284243
  100   0.0036448  -0.0136926  -0.0074350
  101  -0.0106598   0.0340976   0.0043043
  102  -0.0078364   0.0039165   0.0868556
  103   0.0034222  -0.0014953  -0.0084200
  104   0.0051443   0.0466041   0.0044493
  105  -0.0091870   0.0037444   0.0842991
  106  -1.2209240  -1.0741772   0.0110973
  107  -1.0380599  -1.3633511  -0.0021407
  108   0.0073963  -0.0055878  -0.2969330
  109  -0.0233006  -0.0055651  -0.0065603
  110  -0.0079091   0.0463472  -0.0009617
  111  -0.0062687  -0.0007619   0.0441101
  112   0.4974329   0.5098814  -0.0230994
  113   0.8793918   1.4168750  -0.0266574
  114  -0.0599561  -0.0654334   0.2304922
  115  -0.0003588  -0.0003497   0.0000005
  116  -0.0003321  -0.0000393  -0.0000168
  117  -0.0000674  -0.0000517   0.0000249
  118   0.0005011   0.0005415  -0.0000092
  119   0.0004584   0.0001189   0.0000111
  120   0.0000333   0.0000425  -0.0001116
  121   0.0014452   0.0010410   0.0000193
  122   0.0005821  -0.0000068   0.0000473
  123  -0.0000033   0.0000640  -0.0000620
  124  -0.0005329  -0.0004296  -0.0000037
  125  -0.0007918  -0.0002448  -0.0000382
  126  -0.0000063  -0.0000308   0.0000098
  127  -0.0005860  -0.0002773  -0.0000231
  128  -0.0002897   0.0000660  -0.0000246
  129   0.0000500   0.0000205   0.0000501
  130  -0.0021730  -0.0013367  -0.0000069
  131  -0.0018378  -0.0004917  -0.0001284
  132  -0.0003710  -0.0004794  -0.0000448
  133   0.0005832   0.0001561   0.0000233
  134  -0.0003309  -0.0003093   0.0000092
  135   0.0000671   0.0000527   0.0001086
  136   0.0000411   0.0000597  -0.0000043
  137   0.0002581   0.0001524   0.0000063
  138   0.0000020  -0.0000006   0.0000007
  139   0.0002827  -0.0000329   0.0000327
  140   0.0008366   0.0000097   0.0000542
  141  -0.0000737  -0.0000354  -0.0001362
  142   0.0013503   0.0006381   0.0000693
  143   0.0009590   0.0000913   0.0000527
  144  -0.0000703  -0.0000098  -0.0000973
  145   0.0003701   0.0003776  -0.0000052
  146   0.0002083   0.0003232  -0.0000090
  147  -0.0000109  -0.0000092   0.0000259
  148   0.0003623   0.0001684   0.0000177
  149   0.0000435   0.0000111   0.0000026
  150   0.0000489   0.0000224  -0.0000114
  151  -0.0001797  -0.0000779  -0.0000118
  152  -0.0000728   0.0000939  -0.0000116
  153   0.0000179   0.0000094   0.0000339
  154  -0.0003057  -0.0001358  -0.0000125
  155   0.0002404   0.0002337  -0.0000015
  156  -0.0000089  -0.0000054   0.0000058
  157   0.0002994   0.0000613   0.0000198
  158  -0.0002438  -0.0000661  -0.0000154
  159   0.0000710   0.0000216   0.0000051
  160   0.0002034   0.0002346  -0.0000089
  161   0.0002716   0.0001752   0.0000021
  162   0.0000322   0.0000152  -0.0000088
  163   0.0000885  -0.0000799   0.0000080
  164  -0.0002199   0.0003413  -0.0000382
  165  -0.0000772  -0.0001137  -0.0000227
  166  -0.0002445  -0.0002109   0.0000026
  167  -0.0008842  -0.0003413  -0.0000320
  168   0.0002008   0.0000726   0.0000308
mem use when entering cis_hess,0,625000000
mem use when entering PV,0,625000000
mem use when entering PT + WS,0,625000000
mem use when entering II^xy,0,625000000
mem use when entering PCM,0,625000000
mem use when entering E^xy,0,625000000
mem use when entering PF,0,625000000
mem use when entering ws,0,625000000
mem use when entering RPA_Hess_IIx,0,625000000
Nshell = 196 
s2Bra.ftnCode() = 360011 
 hess cis_hess_iirx
            1           2           3           4           5           6
    1  -0.0002721   0.0000627   0.0001511   0.0000090  -0.0000741  -0.0001109
    2   0.0000627  -0.0000157  -0.0000455  -0.0000112   0.0000183   0.0000382
    3   0.0001511  -0.0000455  -0.0001038  -0.0000401   0.0000503   0.0000865
    4   0.0000090  -0.0000112  -0.0000401  -0.0015354  -0.0001015   0.0003743
    5  -0.0000741   0.0000183   0.0000503  -0.0001015  -0.0000662  -0.0000358
    6  -0.0001109   0.0000382   0.0000865   0.0003743  -0.0000358  -0.0002028
    7  -0.0002466   0.0000137   0.0000585   0.0006244   0.0001297  -0.0000043
    8   0.0001354  -0.0000179  -0.0000524   0.0005526   0.0000811  -0.0000999
    9   0.0001282  -0.0000227  -0.0000393   0.0003876   0.0000357  -0.0000859
   10   0.0000840  -0.0000189  -0.0000561  -0.0001378  -0.0000155   0.0000267
   11   0.0000236  -0.0000050  -0.0000177  -0.0000475  -0.0000116   0.0000126
   12  -0.0000278  -0.0000030  -0.0000038  -0.0001216  -0.0000043   0.0000270
   13   0.0000056  -0.0000010  -0.0000061  -0.0000059   0.0000061   0.0000187
   14   0.0000013   0.0000021   0.0000002   0.0000073  -0.0000019  -0.0000028
   15   0.0000309  -0.0000009  -0.0000061   0.0000887   0.0000130  -0.0000097
   16   0.0000365  -0.0000070  -0.0000149  -0.0000481  -0.0000036  -0.0000031
   17  -0.0000140  -0.0000004   0.0000068   0.0000160   0.0000028  -0.0000011
   18   0.0000041  -0.0000016   0.0000003   0.0000248   0.0000042   0.0000057
   19  -0.0000076   0.0000015   0.0000039   0.0000418   0.0000009  -0.0000141
   20   0.0000022  -0.0000006  -0.0000002   0.0000088   0.0000035  -0.0000001
   21   0.0000007  -0.0000005  -0.0000011  -0.0000034   0.0000010   0.0000064
   22  -0.0000041   0.0000004   0.0000015   0.0000366  -0.0000005  -0.0000162
   23  -0.0000005   0.0000009  -0.0000005  -0.0000022  -0.0000006  -0.0000029
   24   0.0000013  -0.0000001  -0.0000013  -0.0000054  -0.0000006   0.0000056
   25   0.0000017  -0.0000001   0.0000005  -0.0000059   0.0000005   0.0000016
   26  -0.0000048   0.0000014   0.0000029   0.0000011  -0.0000005  -0.0000016
   27  -0.0000049   0.0000009   0.0000017  -0.0000024  -0.0000007   0.0000000
   28   0.0000348   0.0000022   0.0000006   0.0000071  -0.0000033  -0.0000101
   29  -0.0000011   0.0000009   0.0000018   0.0000035   0.0000015  -0.0000025
   30  -0.0000018   0.0000008   0.0000009   0.0000020  -0.0000009   0.0000008
   31  -0.0000015   0.0000003   0.0000008  -0.0000013  -0.0000002   0.0000002
   32   0.0000002  -0.0000000  -0.0000002   0.0000004   0.0000001   0.0000001
   33   0.0000014   0.0000001   0.0000003   0.0000059   0.0000007  -0.0000016
   34  -0.0000065   0.0000010   0.0000025  -0.0000045  -0.0000042  -0.0000044
   35   0.0000014  -0.0000002  -0.0000006   0.0000013   0.0000009   0.0000009
   36   0.0000029  -0.0000004  -0.0000013   0.0000022   0.0000019   0.0000020
   37   0.0000008  -0.0000001  -0.0000004   0.0000015   0.0000006   0.0000002
   38  -0.0000001   0.0000000   0.0000001  -0.0000001  -0.0000001  -0.0000000
   39  -0.0000019   0.0000002   0.0000009  -0.0000026  -0.0000012  -0.0000005
   40   0.0000077  -0.0000014  -0.0000019   0.0000003  -0.0000009   0.0000006
   41  -0.0000070   0.0000018   0.0000035   0.0000118  -0.0000025  -0.0000031
   42  -0.0000012   0.0000010   0.0000004   0.0000161  -0.0000018  -0.0000010
   43   0.0007688  -0.0002547  -0.0006000  -0.0007872   0.0005481   0.0009776
   44  -0.0002240   0.0000345   0.0001052  -0.0004397  -0.0000335   0.0000504
   45  -0.0000522   0.0000070   0.0000037  -0.0005113  -0.0000307   0.0001460
   46   0.0002162   0.0001696   0.0003348   0.0023412  -0.0006294  -0.0014952
   47  -0.0000320   0.0000488   0.0000967  -0.0001677  -0.0002297  -0.0002490
   48  -0.0004097   0.0002789   0.0004744  -0.0040148  -0.0012728  -0.0007204
   49  -0.0002546   0.0000485   0.0000925   0.0001940   0.0001017   0.0000122
   50   0.0000079   0.0000016  -0.0000003   0.0001724   0.0000212  -0.0000327
   51  -0.0000631   0.0000177   0.0000345  -0.0000880  -0.0000027   0.0000007
   52  -0.0000271  -0.0000022   0.0000059   0.0002610   0.0000516  -0.0000177
   53  -0.0000130   0.0000048   0.0000124  -0.0000138  -0.0000064  -0.0000013
   54   0.0000018  -0.0000028  -0.0000048   0.0001298   0.0000211   0.0000030
   55  -0.0000159   0.0000047   0.0000103   0.0000153   0.0000195   0.0000064
   56  -0.0000007   0.0000014   0.0000017   0.0000283   0.0000001  -0.0000124
   57   0.0000046  -0.0000021  -0.0000047   0.0000076   0.0000181   0.0000152
   58   0.0000398  -0.0000125  -0.0000243  -0.0001051  -0.0000207   0.0000420
   59   0.0000116  -0.0000038  -0.0000083  -0.0000299   0.0000019   0.0000168
   60   0.0000094  -0.0000029  -0.0000042   0.0000372   0.0000072  -0.0000042
   61   0.0000010  -0.0000024  -0.0000016   0.0000479   0.0000169   0.0000071
   62   0.0000022   0.0000005   0.0000001  -0.0000106  -0.0000038  -0.0000023
   63  -0.0000019   0.0000003   0.0000003   0.0000055  -0.0000012  -0.0000033
   64  -0.0000172  -0.0000027   0.0000018  -0.0001205  -0.0000166   0.0000310
   65  -0.0000052  -0.0000001   0.0000014  -0.0000237  -0.0000028   0.0000065
   66  -0.0000061  -0.0000005   0.0000013  -0.0000164  -0.0000022   0.0000083
   67   0.0000095  -0.0000006  -0.0000039  -0.0000272  -0.0000077   0.0000001
   68   0.0000023  -0.0000002  -0.0000011  -0.0000008  -0.0000024   0.0000001
   69   0.0000006   0.0000004   0.0000002  -0.0000087  -0.0000042   0.0000007
   70  -0.0000020  -0.0000002  -0.0000001  -0.0000014   0.0000008   0.0000018
   71  -0.0000006   0.0000000  -0.0000000   0.0000033   0.0000007   0.0000003
   72  -0.0000003  -0.0000001  -0.0000001  -0.0000012   0.0000008   0.0000005
   73   0.0000032  -0.0000014  -0.0000025  -0.0000068   0.0000018   0.0000046
   74  -0.0000027   0.0000012   0.0000017   0.0000040  -0.0000007  -0.0000025
   75  -0.0000238   0.0000079   0.0000104   0.0000342   0.0000037  -0.0000065
   76  -0.0002215  -0.0000629  -0.0000240  -0.0002930   0.0001445   0.0002333
   77   0.0000875  -0.0000545  -0.0001150   0.0001851   0.0001946   0.0002050
   78   0.0003967  -0.0002412  -0.0003707   0.0032980   0.0008980   0.0004462
   79  -0.0001132   0.0000640   0.0001001  -0.0001003  -0.0000868  -0.0001272
   80   0.0000630  -0.0000531  -0.0000737   0.0000304   0.0000724   0.0001220
   81  -0.0000656   0.0000294   0.0000511  -0.0017519  -0.0001566   0.0003647
   82  -0.0000151   0.0000209   0.0000249  -0.0004925  -0.0000797   0.0000638
   83  -0.0000214   0.0000297   0.0000281  -0.0002340  -0.0000458   0.0000041
   84  -0.0000087  -0.0000269  -0.0000850   0.0017761   0.0003666  -0.0001731
   85   0.0000136  -0.0000082  -0.0000144   0.0000171   0.0000055   0.0000091
   86   0.0000069   0.0000069   0.0000058  -0.0000430  -0.0000174  -0.0000014
   87  -0.0000378  -0.0000102   0.0000009  -0.0002492   0.0000090   0.0001604
   88   0.0000007   0.0000000  -0.0000003  -0.0000011  -0.0000005  -0.0000007
   89  -0.0000003  -0.0000001   0.0000001   0.0000011   0.0000006   0.0000007
   90  -0.0000018  -0.0000013   0.0000001   0.0000208   0.0000063   0.0000050
   91  -0.0000325   0.0000145   0.0000239   0.0000007  -0.0000183  -0.0000419
   92  -0.0000046  -0.0000024  -0.0000046   0.0000860   0.0000203   0.0000024
   93   0.0001322  -0.0000476  -0.0000882   0.0007069   0.0001679   0.0000199
   94   0.0000004  -0.0000000   0.0000000  -0.0000004  -0.0000001  -0.0000007
   95   0.0000001  -0.0000000  -0.0000001   0.0000027   0.0000003   0.0000001
   96  -0.0000038   0.0000008   0.0000012   0.0000206   0.0000034   0.0000017
   97   0.0000077  -0.0000446  -0.0000521   0.0001454   0.0000802   0.0000881
   98  -0.0000042  -0.0000029  -0.0000004   0.0000128   0.0000105  -0.0000054
   99  -0.0000583   0.0000334   0.0000598  -0.0001607  -0.0000953  -0.0001077
  100  -0.0000001   0.0000006   0.0000006   0.0000039   0.0000001  -0.0000021
  101  -0.0000002  -0.0000005  -0.0000004  -0.0000041  -0.0000003   0.0000019
  102   0.0000045  -0.0000059  -0.0000090  -0.0000513   0.0000021   0.0000281
  103  -0.0000022   0.0000009   0.0000018  -0.0000097  -0.0000021  -0.0000002
  104  -0.0000002   0.0000000  -0.0000001   0.0000121   0.0000007  -0.0000022
  105   0.0000139  -0.0000059  -0.0000124   0.0000987   0.0000169  -0.0000044
  106  -0.0000014   0.0000405   0.0000438  -0.0001068  -0.0000648  -0.0000765
  107   0.0000028   0.0000291   0.0000316  -0.0000911  -0.0000486  -0.0000543
  108  -0.0000004   0.0000014   0.0000016  -0.0000045  -0.0000125   0.0000011
  109   0.0000003   0.0000001   0.0000001   0.0000024   0.0000002  -0.0000008
  110  -0.0000004  -0.0000001  -0.0000000  -0.0000016  -0.0000001   0.0000006
  111  -0.0000028   0.0000005   0.0000014  -0.0000262  -0.0000039   0.0000044
  112   0.0000000  -0.0000133  -0.0000147   0.0000343   0.0000207   0.0000271
  113   0.0000005  -0.0000277  -0.0000312   0.0000849   0.0000452   0.0000524
  114   0.0000060   0.0000004  -0.0000017   0.0000378   0.0000054  -0.0000122
  115  -0.0000004   0.0000001   0.0000002   0.0000004  -0.0000001  -0.0000002
  116  -0.0000000   0.0000000   0.0000000   0.0000001   0.0000000  -0.0000000
  117  -0.0000002  -0.0000001  -0.0000001  -0.0000011  -0.0000000   0.0000003
  118   0.0000001   0.0000000  -0.0000000  -0.0000002   0.0000000   0.0000001
  119  -0.0000001  -0.0000000   0.0000000   0.0000001  -0.0000000  -0.0000000
  120   0.0000004  -0.0000001  -0.0000002   0.0000000   0.0000001   0.0000001
  121   0.0000015  -0.0000001  -0.0000004  -0.0000007   0.0000001   0.0000002
  122   0.0000007  -0.0000002  -0.0000004   0.0000003   0.0000002   0.0000001
  123   0.0000003   0.0000002   0.0000003   0.0000028   0.0000003  -0.0000004
  124  -0.0000001   0.0000000   0.0000000   0.0000001  -0.0000000  -0.0000001
  125  -0.0000001   0.0000000   0.0000000  -0.0000000  -0.0000000  -0.0000000
  126  -0.0000003   0.0000001   0.0000001  -0.0000002  -0.0000001  -0.0000000
  127   0.0000005  -0.0000001  -0.0000002  -0.0000002   0.0000001   0.0000002
  128  -0.0000003   0.0000001   0.0000001   0.0000000  -0.0000001  -0.0000001
  129  -0.0000020   0.0000006   0.0000013   0.0000003  -0.0000005  -0.0000006
  130   0.0000012  -0.0000013  -0.0000036   0.0000106   0.0000019  -0.0000004
  131  -0.0000017   0.0000016   0.0000022  -0.0000073  -0.0000022  -0.0000014
  132  -0.0000105   0.0000041   0.0000078  -0.0000204  -0.0000074  -0.0000070
  133   0.0000001  -0.0000000  -0.0000000  -0.0000000   0.0000000   0.0000000
  134  -0.0000001   0.0000000   0.0000000   0.0000000  -0.0000000  -0.0000000
  135   0.0000001  -0.0000000  -0.0000001   0.0000000   0.0000000   0.0000001
  136   0.0000000  -0.0000000  -0.0000000  -0.0000000   0.0000000   0.0000000
  137   0.0000000  -0.0000000  -0.0000000   0.0000000   0.0000000   0.0000000
  138   0.0000000  -0.0000000  -0.0000000  -0.0000000   0.0000000  -0.0000000
  139  -0.0000001   0.0000000   0.0000000   0.0000000  -0.0000000  -0.0000000
  140   0.0000001  -0.0000000  -0.0000001   0.0000000   0.0000000   0.0000000
  141   0.0000004  -0.0000001  -0.0000002   0.0000000   0.0000001   0.0000000
  142  -0.0000028   0.0000008   0.0000015  -0.0000015  -0.0000006  -0.0000002
  143   0.0000009  -0.0000002  -0.0000003   0.0000005   0.0000002   0.0000001
  144   0.0000053  -0.0000014  -0.0000029   0.0000020   0.0000015   0.0000015
  145   0.0000001  -0.0000000  -0.0000000  -0.0000000   0.0000000   0.0000000
  146   0.0000001   0.0000000  -0.0000000  -0.0000001   0.0000000   0.0000000
  147  -0.0000001   0.0000000   0.0000001  -0.0000001  -0.0000000  -0.0000000
  148   0.0000000  -0.0000000  -0.0000000   0.0000000   0.0000000   0.0000000
  149  -0.0000000   0.0000000   0.0000000   0.0000000  -0.0000000  -0.0000000
  150  -0.0000000   0.0000000   0.0000000  -0.0000000  -0.0000000  -0.0000000
  151  -0.0000000   0.0000000   0.0000000  -0.0000000  -0.0000000  -0.0000000
  152  -0.0000000   0.0000000   0.0000000   0.0000000  -0.0000000  -0.0000000
  153   0.0000000  -0.0000000  -0.0000000   0.0000000   0.0000000   0.0000000
  154  -0.0000003   0.0000001   0.0000002  -0.0000007  -0.0000002  -0.0000001
  155   0.0000000  -0.0000000  -0.0000000   0.0000002   0.0000000  -0.0000000
  156   0.0000003  -0.0000001  -0.0000002   0.0000006   0.0000002   0.0000001
  157   0.0000000  -0.0000000  -0.0000000   0.0000000   0.0000000   0.0000000
  158  -0.0000000   0.0000000   0.0000000  -0.0000000  -0.0000000  -0.0000000
  159   0.0000000  -0.0000000  -0.0000000   0.0000000   0.0000000  -0.0000000
  160   0.0000000  -0.0000000  -0.0000000   0.0000000   0.0000000   0.0000000
  161   0.0000000  -0.0000000  -0.0000000   0.0000000   0.0000000   0.0000000
  162   0.0000000  -0.0000000  -0.0000000  -0.0000000   0.0000000   0.0000000
  163   0.0000001  -0.0000001  -0.0000001  -0.0000012  -0.0000000   0.0000001
  164   0.0000001   0.0000001  -0.0000000   0.0000029   0.0000001  -0.0000004
  165   0.0000006  -0.0000003  -0.0000004   0.0000006   0.0000002  -0.0000003
  166  -0.0000001  -0.0000000   0.0000000  -0.0000001  -0.0000001  -0.0000000
  167  -0.0000001   0.0000000   0.0000001  -0.0000001  -0.0000001  -0.0000001
  168  -0.0000000  -0.0000000   0.0000000   0.0000000  -0.0000000  -0.0000000
            7           8           9          10          11          12
    1  -0.0002466   0.0001354   0.0001282   0.0000840   0.0000236  -0.0000278
    2   0.0000137  -0.0000179  -0.0000227  -0.0000189  -0.0000050  -0.0000030
    3   0.0000585  -0.0000524  -0.0000393  -0.0000561  -0.0000177  -0.0000038
    4   0.0006244   0.0005526   0.0003876  -0.0001378  -0.0000475  -0.0001216
    5   0.0001297   0.0000811   0.0000357  -0.0000155  -0.0000116  -0.0000043
    6  -0.0000043  -0.0000999  -0.0000859   0.0000267   0.0000126   0.0000270
    7  -0.0067754   0.0012919   0.0018141   0.0002132   0.0000168  -0.0002632
    8   0.0012919  -0.0009757  -0.0007721   0.0001422   0.0000752   0.0001296
    9   0.0018141  -0.0007721  -0.0010268   0.0000721   0.0000496   0.0002553
   10   0.0002132   0.0001422   0.0000721  -0.0006560  -0.0001459  -0.0001240
   11   0.0000168   0.0000752   0.0000496  -0.0001459  -0.0000683  -0.0001196
   12  -0.0002632   0.0001296   0.0002553  -0.0001240  -0.0001196  -0.0006882
   13  -0.0002045   0.0000711   0.0000869  -0.0000453  -0.0000204  -0.0000412
   14   0.0000224  -0.0000079  -0.0000132   0.0000055   0.0000097   0.0000411
   15  -0.0000452  -0.0000066  -0.0000190   0.0000253   0.0000465   0.0003503
   16   0.0001380  -0.0000031  -0.0000218  -0.0000708  -0.0000236  -0.0000428
   17  -0.0000441   0.0000026   0.0000072   0.0000196   0.0000057   0.0000049
   18  -0.0000118  -0.0000221  -0.0000147   0.0000315   0.0000127   0.0000237
   19   0.0000079  -0.0000110  -0.0000044   0.0000036   0.0000029   0.0000099
   20  -0.0000091   0.0000001  -0.0000011  -0.0000010   0.0000002   0.0000021
   21   0.0000016   0.0000005  -0.0000042   0.0000025   0.0000016   0.0000045
   22   0.0000008  -0.0000042  -0.0000002   0.0000059   0.0000014  -0.0000008
   23   0.0000138  -0.0000001  -0.0000002   0.0000014  -0.0000007  -0.0000039
   24  -0.0000030   0.0000002   0.0000008  -0.0000015  -0.0000011  -0.0000006
   25  -0.0000062   0.0000044   0.0000044   0.0000014   0.0000004  -0.0000002
   26  -0.0000065   0.0000021   0.0000025   0.0000016   0.0000005  -0.0000003
   27  -0.0000021   0.0000022   0.0000022   0.0000005   0.0000003  -0.0000005
   28   0.0000756  -0.0000193  -0.0000215  -0.0000045  -0.0000011   0.0000085
   29  -0.0000035  -0.0000016   0.0000004   0.0000015   0.0000002  -0.0000004
   30  -0.0000028   0.0000003  -0.0000001  -0.0000007   0.0000001   0.0000002
   31  -0.0000054   0.0000006   0.0000011   0.0000077   0.0000023  -0.0000004
   32  -0.0000016   0.0000002   0.0000004  -0.0000003   0.0000005   0.0000007
   33   0.0000080  -0.0000059  -0.0000077   0.0000002   0.0000013   0.0000143
   34   0.0000664  -0.0000151  -0.0000185   0.0000053   0.0000040   0.0000095
   35  -0.0000139   0.0000028   0.0000048  -0.0000009  -0.0000005  -0.0000003
   36  -0.0000293   0.0000068   0.0000090  -0.0000046  -0.0000025  -0.0000062
   37  -0.0000080   0.0000015   0.0000025  -0.0000001  -0.0000005  -0.0000001
   38   0.0000013  -0.0000003  -0.0000004   0.0000005   0.0000002   0.0000005
   39   0.0000122  -0.0000028  -0.0000039   0.0000012   0.0000014  -0.0000002
   40   0.0001211  -0.0000152  -0.0000346  -0.0000010  -0.0000013   0.0000112
   41  -0.0000913   0.0000329   0.0000167   0.0000100   0.0000003   0.0000020
   42  -0.0000404  -0.0000061  -0.0000104   0.0000041   0.0000019   0.0000030
   43   0.0018681  -0.0012919  -0.0018014   0.0011872   0.0004914   0.0014013
   44  -0.0024893   0.0013600   0.0010782   0.0000419  -0.0000026  -0.0001116
   45  -0.0012922   0.0005766   0.0009874  -0.0000595  -0.0000269  -0.0000708
   46   0.0084127  -0.0017645  -0.0014756  -0.0018773  -0.0008533  -0.0003291
   47   0.0037117  -0.0004000  -0.0007022  -0.0003819  -0.0001024  -0.0002093
   48   0.0246496  -0.0031155  -0.0045695  -0.0012696   0.0000647  -0.0015575
   49  -0.0022038   0.0002635   0.0001590   0.0013344   0.0003576  -0.0003447
   50  -0.0001324  -0.0001781  -0.0000822   0.0000380   0.0000349   0.0000965
   51  -0.0006834   0.0001575   0.0002475   0.0003571   0.0000852  -0.0000394
   52  -0.0009962   0.0000472   0.0001301   0.0001243   0.0000843   0.0001989
   53   0.0000252   0.0000405  -0.0000185   0.0001365   0.0000449   0.0000522
   54  -0.0003802  -0.0000109  -0.0000138  -0.0000453   0.0000244   0.0002090
   55  -0.0002373   0.0000438  -0.0000075   0.0001269   0.0000416  -0.0000024
   56   0.0001001  -0.0000287   0.0000013   0.0000036  -0.0000006  -0.0000030
   57  -0.0000468  -0.0000573  -0.0000569   0.0000803   0.0000209  -0.0000114
   58   0.0002444  -0.0000785  -0.0000146  -0.0002798  -0.0000289   0.0002606
   59   0.0000850  -0.0000441  -0.0000277  -0.0000330  -0.0000010   0.0000426
   60   0.0001715  -0.0000015  -0.0000819   0.0000010  -0.0000065  -0.0000485
   61  -0.0001303  -0.0000461  -0.0000332   0.0001124   0.0000533   0.0001101
   62   0.0000938  -0.0000015  -0.0000122  -0.0000067  -0.0000041  -0.0000011
   63  -0.0000515   0.0000314   0.0000268  -0.0000439  -0.0000196  -0.0000545
   64  -0.0002911   0.0001708   0.0002531  -0.0000981  -0.0001095  -0.0004702
   65  -0.0000733   0.0000343   0.0000523  -0.0000030  -0.0000175  -0.0000917
   66  -0.0001521   0.0000508   0.0000756   0.0000109  -0.0000251  -0.0001356
   67   0.0002267  -0.0000274  -0.0000328  -0.0000736  -0.0000313  -0.0000325
   68   0.0000455  -0.0000093  -0.0000015  -0.0000253  -0.0000113  -0.0000040
   69   0.0000681  -0.0000080   0.0000087  -0.0000057  -0.0000019  -0.0000065
   70  -0.0000427   0.0000050   0.0000093   0.0000089   0.0000028  -0.0000078
   71  -0.0000153  -0.0000010  -0.0000026   0.0000019   0.0000006   0.0000053
   72  -0.0000067  -0.0000027  -0.0000036   0.0000013   0.0000007  -0.0000013
   73   0.0000052  -0.0000091  -0.0000046   0.0000072   0.0000058   0.0000206
   74  -0.0000138   0.0000078   0.0000052  -0.0000010  -0.0000035  -0.0000188
   75  -0.0001171   0.0000368   0.0000034   0.0000233  -0.0000150  -0.0001689
   76  -0.0001176  -0.0002380  -0.0001436   0.0001357   0.0002516  -0.0000666
   77  -0.0016961  -0.0002736   0.0001100   0.0001276   0.0000528   0.0000986
   78  -0.0138619   0.0008020   0.0008403   0.0007580  -0.0000310   0.0012031
   79  -0.0008332   0.0006426   0.0004851  -0.0001240  -0.0001009  -0.0002670
   80   0.0004050  -0.0004205  -0.0002679   0.0000831   0.0000971   0.0002304
   81  -0.0037836   0.0018214   0.0027085  -0.0001031   0.0001354   0.0018724
   82  -0.0002338   0.0003805   0.0002803  -0.0000172  -0.0000060   0.0002076
   83  -0.0010887   0.0007378   0.0004506   0.0000211  -0.0001042  -0.0002337
   84  -0.0032227   0.0002274   0.0000191   0.0003306  -0.0002659  -0.0021267
   85   0.0002257  -0.0000543  -0.0001684   0.0000351  -0.0000079  -0.0000975
   86  -0.0001125   0.0000665   0.0001214   0.0000021  -0.0000126   0.0001091
   87  -0.0022102   0.0006407   0.0010292  -0.0000576   0.0000953   0.0010390
   88   0.0000367  -0.0000091  -0.0000139  -0.0000004   0.0000003  -0.0000044
   89  -0.0000409   0.0000090   0.0000181   0.0000007  -0.0000010   0.0000042
   90  -0.0002795   0.0000481   0.0001088   0.0000046  -0.0000003   0.0000433
   91   0.0001631  -0.0000803   0.0000309  -0.0000278   0.0000095  -0.0000271
   92  -0.0003218  -0.0000059   0.0000581   0.0000086   0.0000050   0.0000183
   93  -0.0016145  -0.0001034  -0.0000099   0.0000748   0.0000025   0.0002148
   94   0.0000165   0.0000002  -0.0000070   0.0000001   0.0000001  -0.0000019
   95  -0.0000053  -0.0000045   0.0000012   0.0000004   0.0000008   0.0000020
   96  -0.0001882  -0.0000187   0.0000816   0.0000021  -0.0000013   0.0000182
   97  -0.0000807  -0.0002071  -0.0001683   0.0000338   0.0000755   0.0000493
   98   0.0002107  -0.0000972  -0.0000879  -0.0000028   0.0000230  -0.0000464
   99   0.0015653  -0.0002482  -0.0003964  -0.0000058  -0.0000220  -0.0004488
  100  -0.0000012   0.0000001  -0.0000011   0.0000026  -0.0000007  -0.0000102
  101   0.0000012   0.0000007   0.0000011  -0.0000028   0.0000007   0.0000096
  102  -0.0000061  -0.0000029   0.0000128  -0.0000123   0.0000095   0.0001019
  103  -0.0000098   0.0000118   0.0000118  -0.0000004   0.0000004   0.0000047
  104  -0.0000058  -0.0000032  -0.0000036  -0.0000006  -0.0000012  -0.0000046
  105   0.0000426  -0.0000863  -0.0000874   0.0000021  -0.0000058  -0.0000459
  106  -0.0000543   0.0001991   0.0001933  -0.0000220  -0.0000679  -0.0000069
  107  -0.0000672   0.0001848   0.0001577  -0.0000159  -0.0000471   0.0000100
  108  -0.0001175   0.0000647   0.0000150  -0.0000053   0.0000090   0.0000874
  109   0.0000007  -0.0000018  -0.0000012   0.0000000  -0.0000005  -0.0000022
  110  -0.0000004   0.0000014   0.0000007  -0.0000001   0.0000005   0.0000021
  111  -0.0000206   0.0000291   0.0000264  -0.0000021   0.0000023   0.0000210
  112   0.0000242  -0.0000808  -0.0000696   0.0000031   0.0000217   0.0000068
  113   0.0000634  -0.0001734  -0.0001605   0.0000135   0.0000433  -0.0000084
  114   0.0000417  -0.0000225  -0.0000417   0.0000082  -0.0000101  -0.0000740
  115   0.0000000  -0.0000001  -0.0000001   0.0000003   0.0000001   0.0000001
  116  -0.0000001  -0.0000000  -0.0000000   0.0000001   0.0000001   0.0000001
  117  -0.0000020   0.0000012   0.0000011  -0.0000006  -0.0000003  -0.0000005
  118   0.0000001  -0.0000000  -0.0000000  -0.0000001  -0.0000000   0.0000001
  119   0.0000004  -0.0000002  -0.0000001  -0.0000000  -0.0000000  -0.0000001
  120   0.0000013  -0.0000006  -0.0000006   0.0000001   0.0000000  -0.0000003
  121   0.0000025  -0.0000006  -0.0000006  -0.0000010  -0.0000002  -0.0000001
  122   0.0000016  -0.0000010  -0.0000008   0.0000001   0.0000001   0.0000000
  123   0.0000032  -0.0000031  -0.0000027   0.0000022   0.0000007   0.0000009
  124  -0.0000002   0.0000001   0.0000001   0.0000000  -0.0000000  -0.0000001
  125  -0.0000006   0.0000003   0.0000002  -0.0000000  -0.0000000  -0.0000000
  126  -0.0000007   0.0000005   0.0000004  -0.0000002  -0.0000001   0.0000001
  127  -0.0000000  -0.0000000  -0.0000001   0.0000000   0.0000000  -0.0000000
  128  -0.0000011   0.0000005   0.0000004  -0.0000000   0.0000000   0.0000003
  129  -0.0000053   0.0000024   0.0000023  -0.0000001  -0.0000000   0.0000012
  130   0.0000055  -0.0000099  -0.0000080   0.0000058   0.0000008  -0.0000073
  131  -0.0000016   0.0000084   0.0000066  -0.0000080  -0.0000019   0.0000021
  132  -0.0000057   0.0000279   0.0000220  -0.0000255  -0.0000067   0.0000024
  133   0.0000003  -0.0000001  -0.0000001   0.0000000   0.0000000   0.0000001
  134  -0.0000002   0.0000001   0.0000001   0.0000000  -0.0000000  -0.0000001
  135  -0.0000000  -0.0000001  -0.0000000   0.0000000  -0.0000000  -0.0000001
  136   0.0000000  -0.0000000  -0.0000000   0.0000000   0.0000000   0.0000000
  137   0.0000002  -0.0000001  -0.0000001   0.0000000   0.0000000   0.0000000
  138   0.0000000   0.0000000  -0.0000000  -0.0000000  -0.0000000  -0.0000000
  139   0.0000002  -0.0000001  -0.0000000   0.0000000   0.0000000   0.0000000
  140   0.0000006  -0.0000003  -0.0000002  -0.0000000   0.0000000   0.0000000
  141   0.0000010  -0.0000003  -0.0000004  -0.0000002  -0.0000000  -0.0000000
  142  -0.0000032   0.0000024   0.0000022  -0.0000003  -0.0000001   0.0000010
  143   0.0000024  -0.0000015  -0.0000013   0.0000004   0.0000000  -0.0000010
  144   0.0000100  -0.0000067  -0.0000064   0.0000020   0.0000004  -0.0000028
  145   0.0000002  -0.0000001  -0.0000001   0.0000000   0.0000000   0.0000001
  146   0.0000001  -0.0000000  -0.0000000  -0.0000000   0.0000000   0.0000001
  147  -0.0000001   0.0000002   0.0000001  -0.0000001  -0.0000000   0.0000001
  148   0.0000002  -0.0000001  -0.0000001   0.0000000   0.0000000   0.0000000
  149   0.0000000  -0.0000000  -0.0000000   0.0000000   0.0000000   0.0000000
  150  -0.0000001   0.0000000   0.0000000  -0.0000000  -0.0000000   0.0000000
  151  -0.0000001   0.0000001   0.0000000  -0.0000000  -0.0000000  -0.0000000
  152  -0.0000000   0.0000000   0.0000000   0.0000000  -0.0000000  -0.0000000
  153   0.0000001  -0.0000001  -0.0000001   0.0000000   0.0000000  -0.0000000
  154  -0.0000006   0.0000009   0.0000007  -0.0000006  -0.0000002   0.0000001
  155   0.0000002  -0.0000003  -0.0000002   0.0000002   0.0000000  -0.0000000
  156   0.0000005  -0.0000008  -0.0000007   0.0000006   0.0000002  -0.0000001
  157   0.0000002  -0.0000001  -0.0000001   0.0000000   0.0000000   0.0000000
  158  -0.0000001   0.0000001   0.0000000  -0.0000000  -0.0000000  -0.0000000
  159   0.0000000  -0.0000000  -0.0000000   0.0000000   0.0000000   0.0000000
  160   0.0000002  -0.0000001  -0.0000001   0.0000000   0.0000000   0.0000000
  161   0.0000002  -0.0000001  -0.0000001   0.0000000   0.0000000   0.0000000
  162   0.0000000  -0.0000000  -0.0000000  -0.0000000  -0.0000000  -0.0000000
  163   0.0000015   0.0000002   0.0000002  -0.0000008  -0.0000005  -0.0000004
  164   0.0000001  -0.0000016  -0.0000015   0.0000015   0.0000007   0.0000011
  165   0.0000014  -0.0000009  -0.0000008   0.0000002   0.0000001   0.0000003
  166  -0.0000002   0.0000003   0.0000002  -0.0000002  -0.0000001   0.0000000
  167  -0.0000005   0.0000004   0.0000003  -0.0000002  -0.0000001   0.0000001
  168   0.0000001  -0.0000000  -0.0000000   0.0000000   0.0000000   0.0000000
           13          14          15          16          17          18
    1   0.0000056   0.0000013   0.0000309   0.0000365  -0.0000140   0.0000041
    2  -0.0000010   0.0000021  -0.0000009  -0.0000070  -0.0000004  -0.0000016
    3  -0.0000061   0.0000002  -0.0000061  -0.0000149   0.0000068   0.0000003
    4  -0.0000059   0.0000073   0.0000887  -0.0000481   0.0000160   0.0000248
    5   0.0000061  -0.0000019   0.0000130  -0.0000036   0.0000028   0.0000042
    6   0.0000187  -0.0000028  -0.0000097  -0.0000031  -0.0000011   0.0000057
    7  -0.0002045   0.0000224  -0.0000452   0.0001380  -0.0000441  -0.0000118
    8   0.0000711  -0.0000079  -0.0000066  -0.0000031   0.0000026  -0.0000221
    9   0.0000869  -0.0000132  -0.0000190  -0.0000218   0.0000072  -0.0000147
   10  -0.0000453   0.0000055   0.0000253  -0.0000708   0.0000196   0.0000315
   11  -0.0000204   0.0000097   0.0000465  -0.0000236   0.0000057   0.0000127
   12  -0.0000412   0.0000411   0.0003503  -0.0000428   0.0000049   0.0000237
   13  -0.0001048   0.0000145   0.0000342   0.0000382  -0.0000127  -0.0000056
   14   0.0000145  -0.0000074  -0.0000306   0.0000000   0.0000006  -0.0000012
   15   0.0000342  -0.0000306  -0.0003165   0.0000253  -0.0000050  -0.0000064
   16   0.0000382   0.0000000   0.0000253  -0.0000711   0.0000215   0.0000299
   17  -0.0000127   0.0000006  -0.0000050   0.0000215  -0.0000060  -0.0000098
   18  -0.0000056  -0.0000012  -0.0000064   0.0000299  -0.0000098  -0.0000218
   19   0.0000009  -0.0000007  -0.0000029   0.0000038  -0.0000005  -0.0000027
   20  -0.0000008   0.0000000  -0.0000013   0.0000008  -0.0000003  -0.0000009
   21  -0.0000003   0.0000000  -0.0000009   0.0000012  -0.0000004  -0.0000009
   22   0.0000029   0.0000002   0.0000024  -0.0000047   0.0000011   0.0000020
   23   0.0000013   0.0000002   0.0000024  -0.0000031   0.0000010   0.0000016
   24  -0.0000009  -0.0000001  -0.0000008   0.0000004  -0.0000001  -0.0000001
   25  -0.0000007   0.0000001   0.0000015   0.0000010   0.0000004  -0.0000005
   26  -0.0000004   0.0000000   0.0000005   0.0000013  -0.0000001  -0.0000002
   27  -0.0000006   0.0000000   0.0000013   0.0000011  -0.0000001  -0.0000001
   28   0.0000021  -0.0000007  -0.0000080  -0.0000061   0.0000019   0.0000033
   29   0.0000004  -0.0000002  -0.0000005   0.0000005   0.0000005  -0.0000002
   30   0.0000001   0.0000001   0.0000009  -0.0000004  -0.0000006  -0.0000017
   31   0.0000012  -0.0000001   0.0000007   0.0000006  -0.0000001  -0.0000004
   32  -0.0000000  -0.0000001  -0.0000002  -0.0000001   0.0000001   0.0000000
   33  -0.0000001  -0.0000003  -0.0000063   0.0000005  -0.0000003   0.0000003
   34   0.0000302  -0.0000050  -0.0000153  -0.0000026   0.0000024  -0.0000014
   35  -0.0000074   0.0000005   0.0000015   0.0000014  -0.0000001   0.0000001
   36  -0.0000133   0.0000022   0.0000084   0.0000011  -0.0000010  -0.0000004
   37   0.0000007  -0.0000002  -0.0000052  -0.0000001  -0.0000001   0.0000009
   38  -0.0000003   0.0000003   0.0000006   0.0000002  -0.0000002  -0.0000003
   39  -0.0000005  -0.0000002   0.0000098   0.0000003   0.0000005  -0.0000016
   40   0.0000061  -0.0000011  -0.0000036  -0.0000041   0.0000012   0.0000008
   41  -0.0000022  -0.0000001  -0.0000034   0.0000023  -0.0000007  -0.0000005
   42  -0.0000005   0.0000001  -0.0000010   0.0000014  -0.0000006  -0.0000005
   43   0.0002148  -0.0000670  -0.0004114   0.0001654  -0.0000173  -0.0001662
   44  -0.0000887   0.0000088  -0.0000092   0.0000394  -0.0000114   0.0000118
   45  -0.0000530   0.0000024  -0.0000245   0.0000108  -0.0000040   0.0000195
   46   0.0000798  -0.0000019  -0.0004402  -0.0003495   0.0000278   0.0002129
   47   0.0000186   0.0000305   0.0003474  -0.0000943   0.0000258   0.0000179
   48   0.0001858   0.0002771   0.0035267  -0.0004911   0.0001827  -0.0000664
   49   0.0002775  -0.0000113   0.0001087   0.0000668  -0.0000258  -0.0000730
   50  -0.0000573   0.0000049   0.0000635   0.0000312  -0.0000040  -0.0000170
   51   0.0001126  -0.0000131  -0.0000745   0.0000045  -0.0000067  -0.0000058
   52  -0.0001110   0.0000102   0.0000975   0.0000724  -0.0000052  -0.0000365
   53   0.0000469  -0.0000072  -0.0000678   0.0000006  -0.0000028   0.0000001
   54  -0.0001014   0.0000086   0.0000743   0.0000418  -0.0000038  -0.0000196
   55   0.0000070  -0.0000011   0.0000050   0.0000204  -0.0000069  -0.0000150
   56   0.0000008   0.0000003   0.0000060  -0.0000028   0.0000007   0.0000015
   57   0.0000056   0.0000007   0.0000151   0.0000080  -0.0000025  -0.0000077
   58   0.0000204  -0.0000181  -0.0001522  -0.0000201   0.0000068   0.0000208
   59   0.0000043  -0.0000029  -0.0000220  -0.0000016   0.0000008   0.0000013
   60  -0.0000010   0.0000021   0.0000193  -0.0000005   0.0000004  -0.0000033
   61   0.0000124  -0.0000058  -0.0000335   0.0000141  -0.0000013  -0.0000081
   62  -0.0000007  -0.0000004  -0.0000026  -0.0000015   0.0000002   0.0000006
   63  -0.0000084   0.0000042   0.0000260  -0.0000043  -0.0000002   0.0000019
   64  -0.0000227   0.0000265   0.0001788  -0.0000236  -0.0000040   0.0000140
   65  -0.0000025   0.0000048   0.0000335  -0.0000031  -0.0000010   0.0000021
   66  -0.0000100   0.0000082   0.0000545  -0.0000011  -0.0000023   0.0000020
   67  -0.0000036   0.0000009   0.0000014  -0.0000063  -0.0000003   0.0000037
   68  -0.0000009   0.0000001  -0.0000023  -0.0000025   0.0000002   0.0000017
   69   0.0000009  -0.0000011  -0.0000007  -0.0000003  -0.0000000   0.0000009
   70   0.0000069  -0.0000015   0.0000025  -0.0000020   0.0000010   0.0000003
   71  -0.0000025   0.0000003   0.0000040   0.0000008   0.0000002  -0.0000005
   72   0.0000027  -0.0000002   0.0000000  -0.0000009   0.0000001   0.0000002
   73   0.0000019  -0.0000014  -0.0000089   0.0000014  -0.0000000  -0.0000008
   74  -0.0000005   0.0000011   0.0000086  -0.0000010   0.0000000   0.0000004
   75  -0.0000033   0.0000101   0.0000805  -0.0000036  -0.0000011  -0.0000002
   76  -0.0001188  -0.0000323   0.0003306   0.0000332   0.0000578  -0.0000212
   77   0.0000122  -0.0000278  -0.0002621   0.0000412  -0.0000019  -0.0000020
   78  -0.0001092  -0.0002215  -0.0026758   0.0003559  -0.0001202   0.0000442
   79  -0.0000769   0.0000542   0.0001969  -0.0000012  -0.0000137   0.0000031
   80   0.0000420  -0.0000501  -0.0001721   0.0000032   0.0000184   0.0000019
   81  -0.0000328  -0.0001169  -0.0013190   0.0001499  -0.0000525   0.0000244
   82   0.0000072   0.0000038  -0.0001065   0.0000127  -0.0000161  -0.0000025
   83  -0.0000221   0.0000481   0.0001467   0.0000005  -0.0000294  -0.0000068
   84  -0.0001148   0.0001448   0.0011806  -0.0000731   0.0000063  -0.0000080
   85  -0.0000015   0.0000056   0.0000842   0.0000000  -0.0000036  -0.0000059
   86   0.0000159  -0.0000027  -0.0000852   0.0000015  -0.0000075   0.0000025
   87   0.0000407  -0.0000827  -0.0008084   0.0000381  -0.0000064   0.0000358
   88   0.0000005   0.0000002   0.0000049  -0.0000004   0.0000001  -0.0000001
   89  -0.0000004  -0.0000002  -0.0000049   0.0000003  -0.0000002   0.0000001
   90  -0.0000003  -0.0000037  -0.0000496   0.0000025  -0.0000008   0.0000012
   91  -0.0000191   0.0000084   0.0000419   0.0000033   0.0000014   0.0000005
   92  -0.0000138  -0.0000037  -0.0000252   0.0000085   0.0000012  -0.0000004
   93   0.0000235  -0.0000435  -0.0003293   0.0000207  -0.0000025  -0.0000067
   94  -0.0000000   0.0000001   0.0000029  -0.0000000   0.0000001  -0.0000002
   95   0.0000005  -0.0000003  -0.0000032   0.0000000  -0.0000000   0.0000002
   96  -0.0000006  -0.0000008  -0.0000293   0.0000010  -0.0000008   0.0000014
   97  -0.0000071  -0.0000365  -0.0000490  -0.0000020   0.0000303   0.0000078
   98  -0.0000013  -0.0000011   0.0000368  -0.0000033   0.0000078  -0.0000003
   99  -0.0000137   0.0000387   0.0003809  -0.0000230   0.0000061  -0.0000047
  100  -0.0000001   0.0000007   0.0000058  -0.0000001  -0.0000001  -0.0000001
  101  -0.0000003  -0.0000007  -0.0000053   0.0000001   0.0000001   0.0000001
  102   0.0000023  -0.0000065  -0.0000564   0.0000023  -0.0000002  -0.0000006
  103  -0.0000006  -0.0000002  -0.0000038   0.0000007  -0.0000003   0.0000003
  104  -0.0000011   0.0000006   0.0000042  -0.0000002   0.0000000  -0.0000002
  105   0.0000005   0.0000033   0.0000386  -0.0000053   0.0000022  -0.0000022
  106   0.0000066   0.0000321   0.0000141   0.0000052  -0.0000297  -0.0000075
  107   0.0000092   0.0000209  -0.0000040   0.0000028  -0.0000199  -0.0000046
  108   0.0000072  -0.0000103  -0.0000650   0.0000049   0.0000001   0.0000024
  109   0.0000000   0.0000003   0.0000015  -0.0000001  -0.0000000  -0.0000001
  110  -0.0000001  -0.0000003  -0.0000014   0.0000001   0.0000001   0.0000001
  111   0.0000002  -0.0000017  -0.0000143   0.0000013  -0.0000003   0.0000007
  112  -0.0000020  -0.0000102  -0.0000065  -0.0000011   0.0000083   0.0000022
  113  -0.0000064  -0.0000196   0.0000023  -0.0000023   0.0000174   0.0000037
  114  -0.0000032   0.0000062   0.0000480  -0.0000016  -0.0000009  -0.0000031
  115   0.0000000   0.0000000  -0.0000000   0.0000004  -0.0000004  -0.0000005
  116   0.0000000  -0.0000000  -0.0000001   0.0000001  -0.0000001  -0.0000002
  117  -0.0000004   0.0000001   0.0000005  -0.0000006   0.0000003   0.0000006
  118  -0.0000001  -0.0000000  -0.0000000  -0.0000000   0.0000001   0.0000002
  119  -0.0000000   0.0000000   0.0000001   0.0000000  -0.0000000  -0.0000000
  120   0.0000003   0.0000000   0.0000003  -0.0000001  -0.0000001  -0.0000001
  121   0.0000006   0.0000001   0.0000004  -0.0000017   0.0000008   0.0000011
  122   0.0000006  -0.0000001   0.0000002  -0.0000005   0.0000003  -0.0000001
  123   0.0000006  -0.0000001  -0.0000006   0.0000021  -0.0000012  -0.0000018
  124   0.0000000   0.0000000   0.0000001   0.0000000  -0.0000000  -0.0000001
  125  -0.0000000  -0.0000000  -0.0000000  -0.0000000   0.0000000   0.0000000
  126  -0.0000003   0.0000000  -0.0000001  -0.0000000   0.0000000   0.0000002
  127   0.0000003  -0.0000001  -0.0000001  -0.0000003   0.0000001  -0.0000001
  128  -0.0000002  -0.0000000  -0.0000003   0.0000000   0.0000001   0.0000003
  129  -0.0000014  -0.0000000  -0.0000015  -0.0000004   0.0000007   0.0000017
  130   0.0000051   0.0000001   0.0000071  -0.0000010  -0.0000009  -0.0000049
  131  -0.0000016   0.0000009  -0.0000024  -0.0000041  -0.0000003   0.0000045
  132  -0.0000048   0.0000001  -0.0000039  -0.0000159   0.0000073   0.0000145
  133  -0.0000000  -0.0000000  -0.0000000   0.0000000  -0.0000000   0.0000000
  134  -0.0000000   0.0000000   0.0000001   0.0000000  -0.0000000  -0.0000000
  135   0.0000000  -0.0000000   0.0000001  -0.0000001   0.0000001   0.0000001
  136  -0.0000000  -0.0000000  -0.0000000   0.0000000   0.0000000   0.0000000
  137   0.0000000  -0.0000000  -0.0000000   0.0000000  -0.0000000   0.0000000
  138   0.0000000   0.0000000   0.0000000  -0.0000000   0.0000000   0.0000000
  139  -0.0000000   0.0000000  -0.0000000   0.0000000  -0.0000000  -0.0000000
  140   0.0000001  -0.0000000  -0.0000000  -0.0000000   0.0000000  -0.0000000
  141   0.0000004  -0.0000000   0.0000002  -0.0000002   0.0000001  -0.0000002
  142  -0.0000030   0.0000003  -0.0000012   0.0000030  -0.0000016   0.0000003
  143   0.0000008   0.0000001   0.0000009  -0.0000007  -0.0000005  -0.0000003
  144   0.0000037  -0.0000000   0.0000033   0.0000001  -0.0000008  -0.0000035
  145   0.0000000  -0.0000000  -0.0000000  -0.0000000   0.0000000   0.0000000
  146  -0.0000000  -0.0000000  -0.0000000   0.0000000   0.0000000   0.0000000
  147  -0.0000001   0.0000000  -0.0000001   0.0000000  -0.0000000   0.0000001
  148   0.0000000  -0.0000000  -0.0000000   0.0000000  -0.0000000  -0.0000000
  149  -0.0000000   0.0000000  -0.0000000   0.0000000  -0.0000000   0.0000000
  150  -0.0000000   0.0000000  -0.0000000   0.0000000  -0.0000000   0.0000000
  151  -0.0000000   0.0000000   0.0000000   0.0000000  -0.0000000  -0.0000000
  152   0.0000000   0.0000000   0.0000000  -0.0000000  -0.0000000  -0.0000000
  153   0.0000000   0.0000000   0.0000000  -0.0000000  -0.0000000  -0.0000000
  154  -0.0000002   0.0000000  -0.0000002  -0.0000005   0.0000002   0.0000006
  155   0.0000001  -0.0000000   0.0000001   0.0000000   0.0000000  -0.0000001
  156   0.0000002  -0.0000000   0.0000002   0.0000005  -0.0000002  -0.0000006
  157   0.0000000  -0.0000000  -0.0000000   0.0000000  -0.0000000   0.0000000
  158  -0.0000000   0.0000000   0.0000000  -0.0000000   0.0000000  -0.0000000
  159   0.0000000  -0.0000000  -0.0000000  -0.0000000  -0.0000000  -0.0000000
  160   0.0000000  -0.0000000  -0.0000000   0.0000000   0.0000000  -0.0000000
  161   0.0000000  -0.0000000  -0.0000000   0.0000000   0.0000000   0.0000000
  162   0.0000000  -0.0000000   0.0000000  -0.0000000   0.0000000   0.0000000
  163  -0.0000004   0.0000001   0.0000004   0.0000003  -0.0000000  -0.0000000
  164   0.0000006  -0.0000001  -0.0000001   0.0000002  -0.0000000  -0.0000002
  165   0.0000005  -0.0000000  -0.0000002  -0.0000006   0.0000005   0.0000009
  166  -0.0000000  -0.0000000  -0.0000001  -0.0000002   0.0000001   0.0000002
  167  -0.0000000  -0.0000000  -0.0000001  -0.0000001   0.0000002   0.0000002
  168   0.0000000  -0.0000000  -0.0000001   0.0000000  -0.0000000  -0.0000001
           19          20          21          22          23          24
    1  -0.0000076   0.0000022   0.0000007  -0.0000041  -0.0000005   0.0000013
    2   0.0000015  -0.0000006  -0.0000005   0.0000004   0.0000009  -0.0000001
    3   0.0000039  -0.0000002  -0.0000011   0.0000015  -0.0000005  -0.0000013
    4   0.0000418   0.0000088  -0.0000034   0.0000366  -0.0000022  -0.0000054
    5   0.0000009   0.0000035   0.0000010  -0.0000005  -0.0000006  -0.0000006
    6  -0.0000141  -0.0000001   0.0000064  -0.0000162  -0.0000029   0.0000056
    7   0.0000079  -0.0000091   0.0000016   0.0000008   0.0000138  -0.0000030
    8  -0.0000110   0.0000001   0.0000005  -0.0000042  -0.0000001   0.0000002
    9  -0.0000044  -0.0000011  -0.0000042  -0.0000002  -0.0000002   0.0000008
   10   0.0000036  -0.0000010   0.0000025   0.0000059   0.0000014  -0.0000015
   11   0.0000029   0.0000002   0.0000016   0.0000014  -0.0000007  -0.0000011
   12   0.0000099   0.0000021   0.0000045  -0.0000008  -0.0000039  -0.0000006
   13   0.0000009  -0.0000008  -0.0000003   0.0000029   0.0000013  -0.0000009
   14  -0.0000007   0.0000000   0.0000000   0.0000002   0.0000002  -0.0000001
   15  -0.0000029  -0.0000013  -0.0000009   0.0000024   0.0000024  -0.0000008
   16   0.0000038   0.0000008   0.0000012  -0.0000047  -0.0000031   0.0000004
   17  -0.0000005  -0.0000003  -0.0000004   0.0000011   0.0000010  -0.0000001
   18  -0.0000027  -0.0000009  -0.0000009   0.0000020   0.0000016  -0.0000001
   19  -0.0000183   0.0000003   0.0000014  -0.0000003   0.0000000   0.0000002
   20   0.0000003  -0.0000030  -0.0000013   0.0000000   0.0000010   0.0000001
   21   0.0000014  -0.0000013  -0.0000039   0.0000004   0.0000005   0.0000003
[...]
   33      C       7.3658131760     0.1495265006     0.0668825156
   34      H       7.5617942269    -2.0168671038     0.3038045027
   35      H       6.7837173966     2.2331021985    -0.2023714511
   36      C       8.7712131528     0.4347343183     0.1850453030
   37      H       9.4298656926    -0.4220730688     0.3394012178
   38      O       9.2293803828     1.5548648078     0.1209472503
   39      C      -5.3876101231    -1.6186430269     0.2085477903
   40      C      -6.3401559252    -0.5848158785     0.0050247070
   41      C      -4.0653568211    -1.3384409949     0.3187085956
   42      C      -7.7301738159    -0.8440152872    -0.1143481079
   43      C      -5.8794126075     0.7415406972    -0.0799915854
   44      C      -3.5824742738    -0.0000915057     0.2347074357
   45      C      -8.6107505835     0.1723914067    -0.3085380458
   46      H      -8.0778243383    -1.8606950210    -0.0485730238
   47      C      -6.8224905631     1.7832332339    -0.2832326519
   48      C      -4.4866144978     0.9986289699     0.0398521951
   49      C      -8.1484202174     1.5075414826    -0.3942467572
   50      H      -9.6631303122    -0.0313878189    -0.3981300236
   51      H      -6.4709311006     2.7985375292    -0.3483505057
   52      H      -4.1509815999     2.0199156967    -0.0275089036
   53      H      -8.8552086864     2.3038262343    -0.5480991591
   54      H      -5.7312565378    -2.6367570752     0.2749704488
   55      H      -1.9865018103     1.3797910423     0.2634330360
   56      H      -3.3691971746    -2.1436235899     0.4725618846
 ----------------------------------------------------------------
 Nuclear Repulsion Energy =  2301.9216657151 hartrees
 There are       99 alpha and       99 beta electrons
 Requested basis set is 6-31G(d,p)
 There are 196 shells and 560 basis functions

Total QAlloc Memory Limit  20000 MB
Mega-Array Size      4888 MB
MEM_STATIC part      5000 MB
 A cutoff of  1.0D-12 yielded   9462 shell pairs
 There are     77112 function pairs
 Smallest overlap matrix eigenvalue = 2.65E-04

  Scale SEOQF with 1.000000e-02/1.000000e-01/1.000000e-01

 Standard Electronic Orientation quadrupole field applied
 Nucleus-field energy     =     0.0000000199 hartrees
 Guess MOs from SCF MO coefficient file
Reading MOs from coefficient file
Reading MOs from coefficient file
 A restricted Hartree-Fock SCF calculation will be
 performed using Pulay DIIS extrapolation
 SCF converges when DIIS error is below 1.0E-10
 ---------------------------------------
  Cycle       Energy         DIIS Error
 ---------------------------------------
    1   -1113.6930253047      1.53E-11
    2   -1113.6930253046      2.04E-11 Convergence criterion met
 ---------------------------------------
 SCF time:  CPU 147.11 s  wall 147.61 s
 SCF   energy in the final basis set = -1113.6930253046
 Total energy in the final basis set = -1113.6930253046
 Direct RCIS calculation will be performed
 Triplet excitation energies requested
 CIS energy converged when residual is below 10e-10
 ---------------------------------------------------
 Iter    Rts Conv    Rts Left    Ttl Dev     Max Dev
 ---------------------------------------------------
   1         0           2      0.000093    0.000061
   2         0           2      0.000432    0.000359
   3         0           2      0.000437    0.000304
   4         0           2      0.000202    0.000130
   5         0           2      0.000117    0.000086
   6         0           2      0.000041    0.000031
   7         0           2      0.000015    0.000013
   8         0           2      0.000008    0.000006
   9         0           2      0.000004    0.000003
  10         0           2      0.000002    0.000002
  11         0           2      0.000001    0.000001
  12         0           2      0.000000    0.000000
  13         0           2      0.000000    0.000000
  14         0           2      0.000000    0.000000
  15         0           2      0.000000    0.000000
  16         0           2      0.000000    0.000000
  17         0           2      0.000000    0.000000
  18         0           2      0.000000    0.000000
  19         0           2      0.000000    0.000000
  20         1           1      0.000000    0.000000
  21         1           1      0.000000    0.000000
  22         2           0      0.000000    0.000000    Roots Converged
 ---------------------------------------------------
 
 
 ---------------------------------------------------
               CIS Excitation Energies              
 ---------------------------------------------------

 Excited state   1: excitation energy (eV) =    2.5576
    Total energy for state   1:  -1113.599033715010
    Multiplicity: Triplet 
    Trans. Mom.:  0.0000 X   0.0000 Y   0.0000 Z
    Strength   :  0.0000
    D( 96) --> V(  4) amplitude =  0.2878
    D( 97) --> V(  1) amplitude =  0.8943

 Excited state   2: excitation energy (eV) =    2.7870
    Total energy for state   2:  -1113.590606646418
    Multiplicity: Triplet 
    Trans. Mom.:  0.0000 X   0.0000 Y   0.0000 Z
    Strength   :  0.0000
    D( 95) --> V(  5) amplitude =  0.3248
    D( 98) --> V(  3) amplitude = -0.3746
    D( 99) --> V(  2) amplitude =  0.8034
 
 ---------------------------------------------------
  Timing summary (seconds)
  CPU time       2866.81s
  System time       0.00s
  Wall time      2873.10s


 Entering the ER Localization Code for CIS excited states. 

NOTE: THIS HAS BEEN ONLY PARTIALLY TESTED FOR THE CASE THAT WE HAVE UNRESTRICTED ORBITALS.
INITIAL CENTER1 LOCATIONS: state 0  Occ x 12.052 y  0.063 z -0.046 Virt x 11.982 y  0.048 z -0.052
INITIAL CENTER1 LOCATIONS: state 1  Occ x -11.531 y  0.180 z -0.073 Virt x -11.521 y  0.139 z -0.068
INITIAL CENTER2 LOCATIONS: state 0  Occ x 154.618 y  3.427 z  2.287 Virt x 153.807 y  4.216 z  2.149
INITIAL CENTER2 LOCATIONS: state 1  Occ x 144.096 y  6.106 z  2.448 Virt x 144.871 y  6.244 z  2.312
INITIAL STANDARD DEVIATIONS: state 0  Occ x  3.060 y  1.850 z  1.512 Virt x  3.201 y  2.053 z  1.465
INITIAL STANDARD DEVIATIONS: state 1  Occ x  3.336 y  2.464 z  1.563 Virt x  3.484 y  2.495 z  1.519
INITIAL : state 0 sum of square of distances to other adiabatic states Occ 556.185494 Virt 552.378862
INITIAL : state 1 sum of square of distances to other adiabatic states Occ 556.185494 Virt 552.378862



Calling Random Orthogonal Matrix...
RandomSeed = 25
location random matrix in checkantisymmetry: max_diff = 0.000000e+00
location random matrix in checkunitary: max_diff = 0.000000e+00
 initially ruedvalue =    1.02160929018504     
showmatrix initial R-Matrix(0,0) =   0.5517603023
showmatrix initial R-Matrix(1,0) =   0.0033240910
showmatrix initial R-Matrix(0,1) =  -0.0040358244
showmatrix initial R-Matrix(1,1) =   0.4698489879
JacSwp  rnd     1 max_diff -9.999000e+03 ruedval     1.0217372283
In RUED_JACOBI SWEEPS for DIABATIC STATES, ending in round     1  because max_diff = 1.409463e-18
showmatrix final R-Matrix(0,0) =   0.5518304552
showmatrix final R-Matrix(1,0) =   0.0000001013
showmatrix final R-Matrix(0,1) =   0.0000001013
showmatrix final R-Matrix(1,1) =   0.4699067731
showmatrix final adiabatic -> diabatic RotMatrix(0,0) =   0.9999999953
showmatrix final adiabatic -> diabatic RotMatrix(1,0) =   0.0000964526
showmatrix final adiabatic -> diabatic RotMatrix(0,1) =  -0.0000964526
showmatrix final adiabatic -> diabatic RotMatrix(1,1) =   0.9999999953
location RotMatrix in boys_diabatic_nogs in checkunitary: max_diff = 0.000000e+00
showing H in adiabatic representation: NO coupling elements!!!
showmatrix adiabatH(0,0) =   0.0939915896
showmatrix adiabatH(1,0) =   0.0000000000
showmatrix adiabatH(0,1) =   0.0000000000
showmatrix adiabatH(1,1) =   0.1024186582
getting H in diabatic representation: WITH coupling elements!!!
showmatrix diabatH(0,0) =   0.0939915897
showmatrix diabatH(1,0) =   0.0000008128
showmatrix diabatH(0,1) =   0.0000008128
showmatrix diabatH(1,1) =   0.1024186581
FINAL CENTER LOCATIONS Spin Occ : state 0 x 12.052 y  0.063 z -0.046  Virt x 11.982 y  0.048 z -0.052
FINAL CENTER LOCATIONS Spin Occ : state 1 x -11.531 y  0.180 z -0.073  Virt x -11.521 y  0.139 z -0.068
FINAL CENTER2 LOCATIONS: state 0  Occ x 154.618 y  3.427 z  2.287 Virt x 153.807 y  4.216 z  2.149
FINAL CENTER2 LOCATIONS: state 1  Occ x 144.096 y  6.106 z  2.448 Virt x 144.871 y  6.244 z  2.312
FINAL STANDARD DEVIATIONS: state 0  Occ x  3.060 y  1.850 z  1.512 Virt x  3.201 y  2.053 z  1.465
FINAL STANDARD DEVIATIONS: state 1  Occ x  3.336 y  2.464 z  1.563 Virt x  3.484 y  2.495 z  1.519
FINAL: state 0 sum of square of distances to other Centers Occ 556.185515 Virt 552.378882 
FINAL: state 1 sum of square of distances to other Centers Occ 556.185515 Virt 552.378882 



Calculating ER second derivative! Everything should be negative. If so, we are done.
location hessian --max_diff from checksymmetry = 0.000000e+00
eval of hessian: count 0 eval -3.388184
 STSman time:  CPU 0.00 s  wall 0.00 s

 Analysis of SCF Wavefunction
 
 --------------------------------------------------------------
                    Orbital Energies (a.u.)
 --------------------------------------------------------------
 
 Alpha MOs
 -- Occupied --
-20.547 -11.322 -11.272 -11.259 -11.252 -11.248 -11.243 -11.242
-11.241 -11.238 -11.236 -11.236 -11.232 -11.232 -11.232 -11.231
-11.230 -11.229 -11.229 -11.227 -11.227 -11.227 -11.226 -11.226
-11.222 -11.221 -11.220 -11.220  -1.377  -1.178  -1.163  -1.147
 -1.120  -1.091  -1.053  -1.047  -1.037  -1.034  -1.007  -0.992
 -0.983  -0.965  -0.899  -0.862  -0.848  -0.845  -0.835  -0.820
 -0.812  -0.805  -0.780  -0.767  -0.765  -0.703  -0.700  -0.689
 -0.672  -0.666  -0.650  -0.637  -0.630  -0.622  -0.620  -0.612
 -0.603  -0.601  -0.597  -0.592  -0.588  -0.582  -0.577  -0.565
 -0.562  -0.545  -0.539  -0.531  -0.526  -0.521  -0.510  -0.506
 -0.505  -0.496  -0.492  -0.483  -0.477  -0.475  -0.471  -0.467
 -0.457  -0.454  -0.437  -0.418  -0.416  -0.413  -0.378  -0.355
 -0.316  -0.310  -0.286
 -- Virtual --
  0.071   0.103   0.131   0.141   0.190   0.215   0.220   0.224
  0.232   0.242   0.244   0.247   0.253   0.263   0.272   0.279
  0.283   0.288   0.297   0.306   0.309   0.310   0.316   0.317
  0.322   0.326   0.331   0.334   0.336   0.342   0.347   0.351
  0.353   0.364   0.371   0.374   0.392   0.395   0.404   0.411
  0.412   0.419   0.426   0.432   0.442   0.446   0.455   0.469
  0.472   0.477   0.485   0.488   0.490   0.498   0.507   0.515
  0.529   0.532   0.542   0.553   0.569   0.582   0.594   0.667
  0.691   0.695   0.705   0.714   0.718   0.721   0.728   0.729
  0.735   0.743   0.744   0.746   0.750   0.753   0.755   0.768
  0.770   0.785   0.787   0.793   0.795   0.798   0.801   0.808
  0.813   0.817   0.824   0.826   0.835   0.843   0.846   0.853
  0.862   0.869   0.873   0.879   0.882   0.897   0.909   0.910
  0.921   0.929   0.935   0.939   0.943   0.950   0.962   0.968
  0.975   0.984   0.989   0.994   1.002   1.006   1.026   1.031
  1.038   1.046   1.048   1.057   1.066   1.071   1.074   1.079
  1.081   1.081   1.083   1.087   1.090   1.093   1.100   1.105
  1.109   1.115   1.119   1.122   1.132   1.132   1.135   1.140
  1.148   1.161   1.171   1.175   1.178   1.182   1.189   1.194
  1.195   1.206   1.209   1.212   1.217   1.219   1.223   1.228
  1.233   1.241   1.248   1.255   1.261   1.265   1.286   1.292
  1.308   1.321   1.332   1.345   1.368   1.380   1.387   1.399
  1.406   1.415   1.426   1.440   1.455   1.458   1.468   1.484
  1.498   1.508   1.511   1.519   1.538   1.549   1.561   1.570
  1.599   1.602   1.609   1.623   1.628   1.633   1.652   1.653
  1.657   1.660   1.667   1.673   1.681   1.691   1.698   1.707
  1.715   1.719   1.722   1.731   1.766   1.767   1.779   1.790
  1.808   1.816   1.824   1.832   1.845   1.887   1.907   1.917
  1.947   1.962   1.970   1.988   1.997   2.026   2.039   2.046
  2.050   2.054   2.064   2.086   2.102   2.107   2.111   2.113
  2.123   2.130   2.135   2.138   2.145   2.149   2.159   2.172
  2.174   2.179   2.186   2.198   2.201   2.204   2.208   2.211
  2.219   2.229   2.233   2.235   2.240   2.247   2.259   2.266
  2.268   2.273   2.280   2.290   2.293   2.302   2.311   2.320
  2.327   2.341   2.347   2.353   2.366   2.374   2.377   2.390
  2.398   2.413   2.422   2.435   2.446   2.449   2.455   2.460
  2.462   2.488   2.500   2.502   2.508   2.511   2.524   2.531
  2.550   2.562   2.568   2.578   2.588   2.594   2.599   2.610
  2.628   2.634   2.635   2.647   2.657   2.666   2.670   2.674
  2.675   2.683   2.696   2.706   2.709   2.716   2.717   2.724
  2.734   2.745   2.748   2.756   2.762   2.769   2.777   2.779
  2.788   2.792   2.796   2.808   2.820   2.832   2.836   2.844
  2.855   2.872   2.878   2.884   2.891   2.895   2.901   2.907
  2.910   2.926   2.930   2.932   2.946   2.947   2.954   2.959
  2.972   2.975   2.988   3.008   3.013   3.020   3.029   3.038
  3.049   3.055   3.060   3.077   3.081   3.086   3.088   3.107
  3.114   3.146   3.154   3.161   3.163   3.174   3.176   3.188
  3.192   3.199   3.211   3.217   3.220   3.228   3.232   3.244
  3.250   3.277   3.299   3.304   3.327   3.336   3.356   3.365
  3.370   3.386   3.405   3.411   3.434   3.443   3.490   3.523
  3.534   3.556   3.591   3.631   3.633   3.637   3.644   3.661
  3.665   3.689   3.697   3.701   3.719   3.733   3.739   3.768
  3.793   3.800   3.811   3.824   3.866   3.878   3.888   3.890
  3.918   3.921   3.925   3.935   3.979   3.991   4.171   4.202
  4.317   4.363   4.526   4.547   4.573   4.575   4.585   4.613
  4.619   4.648   4.710   4.749   4.791   4.807   4.837   4.847
  4.862   4.883   4.930   4.945   4.951   5.087   5.134   5.193
  5.235   5.266   5.282   5.291   5.384
 --------------------------------------------------------------
 
          Ground-State Mulliken Net Atomic Charges

     Atom                 Charge (a.u.)
  ----------------------------------------
      1 C                    -0.201252
      2 C                    -0.208134
      3 C                    -0.127783
      4 C                    -0.127486
      5 C                    -0.184147
      6 C                    -0.159466
      7 H                     0.107324
      8 H                     0.116274
      9 H                     0.106733
     10 H                     0.124736
     11 H                     0.105903
     12 H                     0.122817
     13 H                     0.104665
     14 H                     0.105157
     15 C                    -0.184685
     16 C                    -0.165661
     17 C                    -0.201980
     18 C                    -0.208593
     19 H                     0.109011
     20 H                     0.123458
     21 H                     0.111171
     22 H                     0.125103
     23 H                     0.119376
     24 H                     0.107126
     25 H                     0.125058
     26 C                     0.026593
     27 C                    -0.174495
     28 C                    -0.153987
     29 C                    -0.109095
     30 H                     0.150827
     31 C                    -0.086466
     32 H                     0.153521
     33 C                    -0.180341
     34 H                     0.164944
     35 H                     0.197274
     36 C                     0.396317
     37 H                     0.106868
     38 O                    -0.539612
     39 C                    -0.125769
     40 C                    -0.041199
     41 C                    -0.149105
     42 C                    -0.125442
     43 C                    -0.026884
     44 C                     0.010688
     45 C                    -0.160275
     46 H                     0.151015
     47 C                    -0.127561
     48 C                    -0.160165
     49 C                    -0.157933
     50 H                     0.149865
     51 H                     0.150474
     52 H                     0.146726
     53 H                     0.150083
     54 H                     0.151818
     55 H                     0.119912
     56 H                     0.146682
  ----------------------------------------
  Sum of atomic charges =     0.000000

 -----------------------------------------------------------------
                    Cartesian Multipole Moments
 -----------------------------------------------------------------
    Charge (ESU x 10^10)
                 0.0000
    Dipole Moment (Debye)
         X      -3.3459      Y      -2.7874      Z      -0.0352
       Tot       4.3550
    Quadrupole Moments (Debye-Ang)
        XX    -207.3211     XY     -26.2924     YY    -158.1631
        XZ       1.7891     YZ      -2.6769     ZZ    -173.5103
    Octopole Moments (Debye-Ang^2)
       XXX    -553.8783    XXY    -253.6369    XYY     -38.9990
       YYY      -2.2193    XXZ      -6.7199    XYZ      -1.1523
       YYZ      -0.8222    XZZ      33.8163    YZZ       2.3096
       ZZZ       1.8237
    Hexadecapole Moments (Debye-Ang^3)
      XXXX  -31842.2796   XXXY   -2383.5027   XXYY   -4870.5915
      XYYY     -42.1072   YYYY   -1095.9831   XXXZ     262.9629
      XXYZ    -123.6132   XYYZ       4.3453   YYYZ     -17.1966
      XXZZ   -5200.0103   XYZZ      23.6990   YYZZ    -361.3921
      XZZZ      -4.1289   YZZZ       2.7520   ZZZZ    -891.7529
 -----------------------------------------------------------------
Archival summary:
1\1\fermi.chem.uh.edu\SP\HF\6-31G**\12728\xunmo\SatMar105:47:122014SatMar105:47:122014\0\\#,HF,6-31G**,\\0,1\C\H,1,1.09278\C,1,1.53156,2,107.657\H,3,1.08738,1,109.88,2,60.3611,0\H,3,1.08986,1,109.19,2,176.768,0\C,3,1.53023,1,112.104,2,-61.8858,0\H,6,1.08653,3,110.138,1,-177.484,0\H,6,1.08835,3,109.218,1,65.8654,0\C,1,1.53242,2,107.755,3,120.945,0\H,9,1.08708,1,109.863,2,-60.1352,0\H,9,1.08896,1,109.057,2,-176.479,0\C,1,1.5372,2,107.421,3,-119.29,0\H,12,1.09287,1,107.415,2,179.96,0\C,12,1.53187,1,110.78,2,-62.7216,0\H,14,1.08749,12,109.868,1,-177.487,0\H,14,1.08981,12,109.173,1,66.1169,0\C,14,1.53026,12,112.054,1,-55.2027,0\H,17,1.08637,14,110.177,12,177.332,0\H,17,1.08826,14,109.199,12,-65.992,0\C,12,1.53251,1,111.112,2,62.3566,0\H,20,1.08721,12,109.809,1,177.686,0\H,20,1.08903,12,109.074,1,-66.0092,0\C,17,1.53795,14,111.542,12,55.4235,0\H,23,1.08857,17,107.097,14,61.8013,0\C,23,1.51864,17,112.531,14,178.979,0\C,25,1.36121,23,120.987,17,-117.289,0\H,26,1.07713,25,119.844,23,-0.00922276,0\C,26,1.42139,25,122.021,23,179.985,0\C,28,1.40667,26,119.104,25,0,0\C,29,1.41901,28,119.209,26,179.999,0\H,30,1.07649,29,118.929,28,179.998,0\C,30,1.35875,29,120.679,28,0,0\H,32,1.07567,30,120.281,29,179.998,0\C,32,1.41553,30,120.169,29,0,0\H,34,1.07577,32,119.488,30,179.997,0\C,34,1.35883,32,120.34,30,0,0\H,36,1.07642,34,120.339,32,179.996,0\C,29,1.42041,28,118.378,26,-0.00359608,0\H,38,1.0766,29,118.887,28,-179.993,0\C,38,1.3561,29,121.006,28,0.00282888,0\H,40,1.07547,38,119.214,29,-179.992,0\C,6,1.54063,3,111.676,1,-55.4601,0\H,42,1.08916,6,106.975,3,-61.7192,0\C,42,1.51107,6,112.641,3,-179.134,0\C,44,1.44381,42,121.96,6,-62.6911,0\H,45,1.07542,44,118.827,42,-0.0188094,0\C,45,1.35446,44,122.214,42,179.98,0\H,47,1.07206,45,121.986,44,180,0\C,44,1.44679,42,120.906,6,117.278,0\H,49,1.07627,44,118.337,42,0.0167416,0\C,49,1.35527,44,122.198,42,-179.979,0\H,51,1.07535,49,120.875,44,179.997,0\C,51,1.45333,49,120.044,44,0,0\C,53,1.43891,51,121.167,49,-179.993,0\H,54,1.09168,53,116.445,51,-0.00395008,0\O,54,1.21191,53,123.237,51,179.995,0\\HF=-1113.69303\\@

 Total job time:  3434.52s(wall), 3426.67s(cpu) 
 Sat Mar  1 05:47:12 2014

        *************************************************************
        *                                                           *
        *  Thank you very much for using Q-Chem.  Have a nice day.  *
        *                                                           *
        *************************************************************


0 sent ACK to 0 
now end server 0 ... 
cleanup process ... done
