
Running Job 1 of 4 INP/d27ae
qchem INP/d27ae_36369.0 /home/qchem_scratch/qchem36369/ 1
/home/QCHEM/bin/mpi/mpirun_qchem -machinefile /home/QCHEM/bin/mpi/machines -np 1 /home/QCHEM/exe/qcprog.exe INP/d27ae_36369.0 /home/qchem_scratch/qchem36369/

Process 0 of 1 is on fermi.chem.uh.edu - thread support 0
initial socket setup ...start
initial socket setup ...done 
now start server 0 ... 
                  Welcome to Q-Chem
     A Quantum Leap Into The Future Of Chemistry

 Y. Shao, L. Fusti-Molnar, Y. Jung, J. Kussmann, C. Ochsenfeld, S. T. Brown, 
 A. T. B. Gilbert, L. V. Slipchenko, S. V. Levchenko, D. P. O'Neill, 
 R. A. DiStasio Jr., R. C. Lochan, T. Wang, G. J. O. Beran, N. A. Besley, 
 J. M. Herbert, C. Y. Lin, T. Van Voorhis, S. H. Chien, A. Sodt, R. P. Steele, 
 V. A. Rassolov, P. E. Maslen, P. P. Korambath, R. D. Adamson, B. Austin, 
 J. Baker, E. F. C. Byrd, H. Dachsel, R. J. Doerksen, A. Dreuw, B. D. Dunietz, 
 A. D. Dutoi, T. R. Furlani, S. R. Gwaltney, A. Heyden, S. Hirata, C.-P. Hsu, 
 G. Kedziora, R. Z. Khaliullin, P. Klunzinger, A. M. Lee, M. S. Lee, W. Liang, 
 I. Lotan, N. Nair, B. Peters, E. I. Proynov, P. A. Pieniazek, Y. M. Rhee, 
 J. Ritchie, E. Rosta, C. D. Sherrill, A. C. Simmonett, J. E. Subotnik, 
 H. L. Woodcock III, W. Zhang, A. T. Bell, A. K. Chakraborty, D. M. Chipman, 
 F. J. Keil, A. Warshel, W. J. Hehre, H. F. Schaefer III, J. Kong, 
 A. I. Krylov, P. M. W. Gill, M. Head-Gordon

 Additional authors for Version 3.1: 
 Z. Gan, Y. Zhao, N. E. Schultz, D. Truhlar, E. Epifanovsky, M. Oana

 Additional authors for Version 3.2: 
 R. Baer, B. R. Brooks, D. Casanova, J.-D. Chai, C.-L. Cheng, C. Cramer, 
 D. Crittenden, A. Ghysels, G. Hawkins, E. G. Hohenstein, C. Kelley, 
 W. Kurlancheek, D. Liotard, E. Livshits, P. Manohar, A. Marenich, 
 D. Neuhauser, R. Olson, M. A. Rohrdanz, K. S. Thanthiriwatte, A. J. W. Thom, 
 V. Vanovschi, C. F. Williams, Q. Wu, Z.-Q. You

 Additional authors for Version 4.0: 
 A. Aspuru-Guzik, Y. Bernard, C. Chang, J. Deng, A. Dreuw, M. Diedenhofen, 
 R. G. Edgar, D. Ghosh, W. A. Goddard III, M. Goldey, L. D. Jacobson, 
 M. Gordon, B. Kaduk, I. Kaliman, K. Khistyaev, R. King, A. Klamt, 
 D. Kosenkov, T. Kus, D. Lambrecht, A. Landau, A. W. Lange, K. Lawler, F. Liu, 
 J. Liu, R. Olivares-Amaya, S. P. Mao, J. Parkhill, N. Russ, M. Schmidt, 
 N. Shenvi, D. Small, Y. C. Su, E. Sundstrom, L. Vogt, O. Vydrov, M. Watson, 
 M. Wormit, X. Xu, S. Yeganeh, I. Y. Zhang, D. Zuev

 Additional authors for Version 4.1: 
 X. Feng, M. W. D. Hanson-Heine, P. Horn, H. Ji, A. Laurent, R. Peverati, 
 N. Mardirossian, N. Sergueev, S. Sharada, P. Zimmerman

 Q-Chem, Version 4.1, Q-Chem, Inc., Pittsburgh, PA (2013).

 Parts of Q-Chem use Armadillo 3.6.2 (Piazza del Duomo).
 http://arma.sourceforge.net/

 Intel X86 Linux Version 4.1.2

 Q-chem begins on Fri Feb 28 08:30:07 2014  

Host: 
0

     Scratch files written to /home/qchem_scratch/qchem36369//
 Feb414 28838_zgan 2267   
 Parallel job on  1  processors
Processing $rem in /home/QCHEM/config/preferences.
 MEM_TOTAL  2000 
Finally everything over in PARseQInput

--------------------------------------------------------------
User input:
--------------------------------------------------------------
$comment
C1,3ea
$end
$molecule
0 1
C       1.4381254924     0.2616305172    -0.8573695076
C       1.4411086480     1.5930272440    -1.6264928767
C       0.0189055953     2.1030737871    -1.8673345916
C      -0.7731906263     2.2368612579    -0.5634693589
C      -0.7813442117     0.9115058447     0.2138575434
C       0.6447999154     0.4028992266     0.4527293275
C      -2.2040277442     2.7236846395    -0.8069523152
C      -3.0132652421     2.8247642767     0.4919997924
C      -3.0077788160     1.5403690605     1.3405594475
C      -1.5475697649     1.0674230487     1.5308008630
C      -3.9263832282     0.4307505631     0.8602432255
C       2.8381078085    -0.2899431490    -0.6329957788
C      -4.0831189181    -0.7460362449     1.7249851406
C       3.7762956211     0.3785897091     0.0974848121
C       3.1961854940    -1.5447309454    -1.1964937339
C       5.0789632917    -0.1444808639     0.3020835094
C       4.4343598124    -2.0745684409    -1.0201775172
C      -4.7294650803     0.4680884357    -0.3141825015
C       5.4171162134    -1.3888378355    -0.2630949700
C       6.0580516191     0.5509653573     1.0629523786
C       7.2977149043     0.0279037579     1.2436026803
C      -5.5578265517    -0.5559916039    -0.6655802678
C       6.7220450431    -1.9114768682    -0.0573961514
C       7.6365243159    -1.2247809499     0.6740746345
C      -4.8969441958    -1.7789723528     1.4063770114
C      -5.6554595243    -1.7486317096     0.1844302786
C      -6.5056580907    -2.8477371518    -0.1930577367
O      -7.1667509342    -2.8566046573    -1.2073294198
H       0.9067041578    -0.4606657345    -1.4747983552
H       1.9600663223     1.4674446948    -2.5726515064
H       2.0005296533     2.3372575391    -1.0633903543
H      -0.5027042320     1.4167623105    -2.5340655547
H       0.0533490093     3.0626187809    -2.3782778421
H      -0.2662485502     2.9779273100     0.0596767597
H      -1.3024957703     0.1718201607    -0.3967025460
H       1.1638390983     1.0901493330     1.1191055023
H       0.6147091630    -0.5567276872     0.9629054091
H      -2.1839774934     3.6982501015    -1.2895361225
H      -2.6854448685     2.0459296849    -1.5069948242
H      -2.5780283134     3.6144267154     1.1009062647
H      -4.0319021721     3.1378445244     0.2823151589
H      -3.3729644589     1.8175857196     2.3315579331
H      -1.5188368123     0.1325328503     2.0827385861
H      -1.0332241965     1.8007914679     2.1506619218
H      -3.5377399889    -0.7751115333     2.6513834654
H       3.5421432823     1.3317450328     0.5397899077
H       2.4659327108    -2.0832113435    -1.7755868468
H       4.6821174562    -3.0266856977    -1.4572399864
H      -4.6917898194     1.3297559847    -0.9521619957
H       5.8010956300     1.5026167494     1.4954592182
H       8.0313775252     0.5623708217     1.8210143815
H      -6.1554228948    -0.5203196796    -1.5544112957
H       6.9752536046    -2.8632343131    -0.4919379035
H       8.6227313578    -1.6266402359     0.8255808245
H      -4.9907226423    -2.6262291829     2.0626560868
H      -6.5319699658    -3.6982587771     0.4911390471
$end


$rem
MEM_TOTAL	20000
MEM_STATIC	5000
JOBTYPE    freq 
SYMMETRY   FALSE
EXCHANGE     	HF
CORRELATION  	none  (built-in)
BASIS       	6-31g** 
cis_state_deriv   1
cis_n_roots       3
cis_singlets      false
cis_triplets      true
max_scf_cycles=100
max_cis_cycles=100
$end

--------------------------------------------------------------
 ----------------------------------------------------------------
             Standard Nuclear Orientation (Angstroms)
    I     Atom           X                Y                Z
 ----------------------------------------------------------------
    1      C       1.4381254924     0.2616305172    -0.8573695076
    2      C       1.4411086480     1.5930272440    -1.6264928767
    3      C       0.0189055953     2.1030737871    -1.8673345916
    4      C      -0.7731906263     2.2368612579    -0.5634693589
    5      C      -0.7813442117     0.9115058447     0.2138575434
    6      C       0.6447999154     0.4028992266     0.4527293275
    7      C      -2.2040277442     2.7236846395    -0.8069523152
    8      C      -3.0132652421     2.8247642767     0.4919997924
    9      C      -3.0077788160     1.5403690605     1.3405594475
   10      C      -1.5475697649     1.0674230487     1.5308008630
   11      C      -3.9263832282     0.4307505631     0.8602432255
   12      C       2.8381078085    -0.2899431490    -0.6329957788
   13      C      -4.0831189181    -0.7460362449     1.7249851406
   14      C       3.7762956211     0.3785897091     0.0974848121
   15      C       3.1961854940    -1.5447309454    -1.1964937339
   16      C       5.0789632917    -0.1444808639     0.3020835094
   17      C       4.4343598124    -2.0745684409    -1.0201775172
   18      C      -4.7294650803     0.4680884357    -0.3141825015
   19      C       5.4171162134    -1.3888378355    -0.2630949700
   20      C       6.0580516191     0.5509653573     1.0629523786
   21      C       7.2977149043     0.0279037579     1.2436026803
   22      C      -5.5578265517    -0.5559916039    -0.6655802678
   23      C       6.7220450431    -1.9114768682    -0.0573961514
   24      C       7.6365243159    -1.2247809499     0.6740746345
   25      C      -4.8969441958    -1.7789723528     1.4063770114
   26      C      -5.6554595243    -1.7486317096     0.1844302786
   27      C      -6.5056580907    -2.8477371518    -0.1930577367
   28      O      -7.1667509342    -2.8566046573    -1.2073294198
   29      H       0.9067041578    -0.4606657345    -1.4747983552
   30      H       1.9600663223     1.4674446948    -2.5726515064
   31      H       2.0005296533     2.3372575391    -1.0633903543
   32      H      -0.5027042320     1.4167623105    -2.5340655547
   33      H       0.0533490093     3.0626187809    -2.3782778421
   34      H      -0.2662485502     2.9779273100     0.0596767597
   35      H      -1.3024957703     0.1718201607    -0.3967025460
   36      H       1.1638390983     1.0901493330     1.1191055023
   37      H       0.6147091630    -0.5567276872     0.9629054091
   38      H      -2.1839774934     3.6982501015    -1.2895361225
   39      H      -2.6854448685     2.0459296849    -1.5069948242
   40      H      -2.5780283134     3.6144267154     1.1009062647
   41      H      -4.0319021721     3.1378445244     0.2823151589
   42      H      -3.3729644589     1.8175857196     2.3315579331
   43      H      -1.5188368123     0.1325328503     2.0827385861
   44      H      -1.0332241965     1.8007914679     2.1506619218
   45      H      -3.5377399889    -0.7751115333     2.6513834654
   46      H       3.5421432823     1.3317450328     0.5397899077
   47      H       2.4659327108    -2.0832113435    -1.7755868468
   48      H       4.6821174562    -3.0266856977    -1.4572399864
   49      H      -4.6917898194     1.3297559847    -0.9521619957
   50      H       5.8010956300     1.5026167494     1.4954592182
   51      H       8.0313775252     0.5623708217     1.8210143815
   52      H      -6.1554228948    -0.5203196796    -1.5544112957
   53      H       6.9752536046    -2.8632343131    -0.4919379035
   54      H       8.6227313578    -1.6266402359     0.8255808245
   55      H      -4.9907226423    -2.6262291829     2.0626560868
   56      H      -6.5319699658    -3.6982587771     0.4911390471
 ----------------------------------------------------------------
 Molecular Point Group                 C1    NOp =  1
 Largest Abelian Subgroup              C1    NOp =  1
 Nuclear Repulsion Energy =  2368.8979052115 hartrees
 There are       99 alpha and       99 beta electrons
 Requested basis set is 6-31G(d,p)
 There are 196 shells and 560 basis functions

Total QAlloc Memory Limit  20000 MB
Mega-Array Size      4888 MB
MEM_STATIC part      5000 MB
 A cutoff of  1.0D-11 yielded   9272 shell pairs
 There are     75913 function pairs
 Smallest overlap matrix eigenvalue = 2.65E-04
 Guess from superposition of atomic densities
 Warning:  Energy on first SCF cycle will be non-variational
 A restricted Hartree-Fock SCF calculation will be
 performed using Pulay DIIS extrapolation
 SCF converges when DIIS error is below 1.0E-08
 ---------------------------------------
  Cycle       Energy         DIIS Error
 ---------------------------------------
    1   -1125.9940748229      3.35E-02
    2   -1113.3223519759      2.58E-03
    3   -1113.6209632930      1.34E-03
    4   -1113.6735052428      5.39E-04
    5   -1113.6848783075      6.25E-05
    6   -1113.6851283486      3.02E-05
    7   -1113.6851994030      1.36E-05
    8   -1113.6852186728      6.31E-06
    9   -1113.6852234448      1.99E-06
   10   -1113.6852239902      8.65E-07
   11   -1113.6852241060      4.34E-07
   12   -1113.6852241469      1.84E-07
   13   -1113.6852241534      7.52E-08
   14   -1113.6852241538      2.23E-08
   15   -1113.6852241535      7.49E-09 Convergence criterion met
 ---------------------------------------
 SCF time:  CPU 700.62 s  wall 706.10 s
 SCF   energy in the final basis set = -1113.6852241535
 Total energy in the final basis set = -1113.6852241535
 Direct RCIS calculation will be performed
 Triplet excitation energies requested
 CIS energy converged when residual is below 10e- 6
 ---------------------------------------------------
 Iter    Rts Conv    Rts Left    Ttl Dev     Max Dev
 ---------------------------------------------------
   1         0           3      0.000441    0.000364
   2         0           3      0.000798    0.000418
   3         0           3      0.000594    0.000267
   4         0           3      0.000255    0.000111
   5         0           3      0.000196    0.000102
   6         0           3      0.000089    0.000061
   7         0           3      0.000042    0.000032
   8         1           2      0.000029    0.000024
   9         1           2      0.000045    0.000042
  10         1           2      0.000133    0.000131
  11         2           1      0.000057    0.000056
  12         2           1      0.000041    0.000040
  13         2           1      0.000024    0.000023
  14         2           1      0.000009    0.000008
  15         2           1      0.000004    0.000004
  16         2           1      0.000003    0.000002
  17         3           0      0.000002    0.000001    Roots Converged
 ---------------------------------------------------
 
 
 ---------------------------------------------------
               CIS Excitation Energies              
 ---------------------------------------------------

 Excited state   1: excitation energy (eV) =    2.5192
    Total energy for state   1:  -1113.592645473148
    Multiplicity: Triplet 
    Trans. Mom.:  0.0000 X   0.0000 Y   0.0000 Z
    Strength   :  0.0000
    D( 96) --> V(  4) amplitude =  0.2811
    D( 97) --> V(  1) amplitude =  0.8844

 Excited state   2: excitation energy (eV) =    2.7409
    Total energy for state   2:  -1113.584498679433
    Multiplicity: Triplet 
    Trans. Mom.:  0.0000 X   0.0000 Y   0.0000 Z
    Strength   :  0.0000
    D( 95) --> V(  5) amplitude =  0.3241
    D( 98) --> V(  3) amplitude =  0.3547
    D( 99) --> V(  2) amplitude = -0.8163

 Excited state   3: excitation energy (eV) =    4.1269
    Total energy for state   3:  -1113.533564261375
    Multiplicity: Triplet 
    Trans. Mom.:  0.0000 X   0.0000 Y   0.0000 Z
    Strength   :  0.0000
    D( 95) --> V(  2) amplitude = -0.6589
    D( 99) --> V(  5) amplitude =  0.6500
 
 ---------------------------------------------------
 Calculating Relaxed Density
 ---------------------------------------------------
 Iter    Rts Conv    Rts Left    Ttl Dev     Max Dev
 ---------------------------------------------------
   1         0           3      0.000238    0.000134
   2         0           3      0.000079    0.000049
   3         0           3      0.000045    0.000034
   4         0           3      0.000014    0.000009
   5         1           2      0.000005    0.000003
   6         2           1      0.000001    0.000001
   7         3           0      0.000000    0.000000    Roots Converged
 ---------------------------------------------------
  Timing summary (seconds)
  CPU time       3121.12s
  System time       0.00s
  Wall time      3127.14s
 STSman time:  CPU 0.00 s  wall 0.00 s

 Analysis of SCF Wavefunction
 
 --------------------------------------------------------------
                    Orbital Energies (a.u.)
 --------------------------------------------------------------
 
 Alpha MOs
 -- Occupied --
-20.548 -11.322 -11.273 -11.256 -11.255 -11.246 -11.245 -11.243
-11.240 -11.238 -11.235 -11.235 -11.231 -11.231 -11.231 -11.231
-11.230 -11.229 -11.228 -11.227 -11.226 -11.226 -11.224 -11.224
-11.221 -11.219 -11.219 -11.218  -1.378  -1.177  -1.164  -1.145
 -1.119  -1.091  -1.055  -1.042  -1.038  -1.027  -1.015  -0.991
 -0.980  -0.963  -0.899  -0.873  -0.850  -0.841  -0.829  -0.819
 -0.813  -0.803  -0.784  -0.763  -0.757  -0.702  -0.699  -0.695
 -0.667  -0.662  -0.647  -0.637  -0.635  -0.623  -0.620  -0.615
 -0.607  -0.601  -0.597  -0.592  -0.584  -0.581  -0.573  -0.566
 -0.561  -0.541  -0.541  -0.533  -0.524  -0.522  -0.513  -0.506
 -0.505  -0.494  -0.486  -0.482  -0.479  -0.473  -0.472  -0.466
 -0.456  -0.451  -0.436  -0.416  -0.415  -0.412  -0.377  -0.355
 -0.315  -0.310  -0.284
 -- Virtual --
  0.070   0.101   0.133   0.140   0.189   0.208   0.223   0.229
  0.234   0.243   0.248   0.254   0.256   0.262   0.273   0.281
  0.286   0.288   0.293   0.303   0.313   0.315   0.317   0.322
  0.325   0.326   0.331   0.332   0.338   0.342   0.347   0.351
  0.358   0.365   0.369   0.388   0.392   0.396   0.401   0.408
  0.411   0.417   0.433   0.435   0.441   0.445   0.458   0.460
  0.465   0.474   0.485   0.491   0.496   0.499   0.510   0.520
  0.529   0.534   0.537   0.553   0.574   0.585   0.604   0.670
  0.685   0.698   0.704   0.710   0.717   0.724   0.728   0.733
  0.734   0.741   0.744   0.746   0.754   0.756   0.761   0.765
  0.767   0.782   0.787   0.794   0.797   0.798   0.811   0.813
  0.816   0.821   0.825   0.834   0.838   0.847   0.849   0.860
  0.865   0.866   0.870   0.878   0.884   0.897   0.907   0.912
  0.920   0.927   0.936   0.943   0.948   0.960   0.963   0.974
  0.976   0.981   0.994   0.996   1.007   1.010   1.020   1.030
  1.035   1.044   1.056   1.065   1.068   1.071   1.073   1.074
  1.079   1.085   1.087   1.091   1.094   1.100   1.103   1.107
  1.111   1.113   1.122   1.130   1.131   1.134   1.137   1.145
  1.154   1.167   1.171   1.173   1.186   1.189   1.191   1.198
  1.199   1.210   1.213   1.217   1.220   1.223   1.228   1.234
  1.241   1.248   1.252   1.257   1.269   1.279   1.289   1.301
  1.307   1.318   1.340   1.346   1.357   1.364   1.380   1.387
  1.406   1.415   1.424   1.441   1.445   1.450   1.466   1.477
  1.492   1.505   1.508   1.519   1.528   1.534   1.541   1.553
  1.570   1.598   1.604   1.617   1.629   1.642   1.647   1.652
  1.659   1.662   1.673   1.684   1.692   1.697   1.698   1.705
  1.715   1.719   1.736   1.755   1.764   1.771   1.775   1.796
  1.808   1.816   1.824   1.834   1.845   1.863   1.911   1.921
  1.959   1.968   1.984   2.007   2.021   2.033   2.043   2.046
  2.050   2.051   2.058   2.081   2.095   2.098   2.110   2.111
  2.119   2.132   2.138   2.144   2.156   2.159   2.170   2.173
  2.177   2.180   2.189   2.191   2.194   2.205   2.209   2.221
  2.226   2.233   2.235   2.239   2.245   2.250   2.256   2.260
  2.268   2.274   2.280   2.288   2.302   2.304   2.307   2.323
  2.338   2.340   2.359   2.362   2.374   2.381   2.392   2.400
  2.407   2.423   2.434   2.438   2.440   2.447   2.449   2.465
  2.470   2.478   2.498   2.506   2.516   2.520   2.528   2.544
  2.547   2.552   2.558   2.577   2.589   2.591   2.597   2.612
  2.616   2.617   2.630   2.634   2.653   2.659   2.671   2.676
  2.685   2.690   2.694   2.704   2.712   2.716   2.723   2.725
  2.735   2.742   2.745   2.748   2.767   2.771   2.774   2.782
  2.787   2.793   2.803   2.816   2.828   2.829   2.837   2.854
  2.856   2.864   2.876   2.891   2.894   2.899   2.904   2.916
  2.925   2.929   2.934   2.944   2.950   2.953   2.957   2.965
  2.971   2.974   2.979   2.982   2.993   3.015   3.020   3.036
  3.044   3.056   3.059   3.073   3.082   3.088   3.093   3.106
  3.115   3.126   3.137   3.151   3.160   3.175   3.178   3.190
  3.193   3.204   3.212   3.220   3.233   3.235   3.239   3.250
  3.260   3.278   3.294   3.304   3.307   3.324   3.350   3.353
  3.364   3.381   3.404   3.413   3.426   3.450   3.479   3.530
  3.541   3.553   3.603   3.632   3.633   3.642   3.650   3.662
  3.676   3.693   3.708   3.723   3.728   3.734   3.739   3.774
  3.793   3.804   3.817   3.826   3.868   3.877   3.887   3.891
  3.901   3.920   3.928   3.934   3.971   3.992   4.172   4.193
  4.317   4.366   4.527   4.548   4.572   4.576   4.586   4.599
  4.605   4.658   4.723   4.742   4.771   4.829   4.838   4.853
  4.884   4.908   4.921   4.939   4.992   5.097   5.150   5.185
  5.235   5.268   5.291   5.307   5.383
 --------------------------------------------------------------
 
          Ground-State Mulliken Net Atomic Charges

     Atom                 Charge (a.u.)
  ----------------------------------------
      1 C                    -0.154757
      2 C                    -0.197472
      3 C                    -0.209975
      4 C                    -0.120029
      5 C                    -0.130970
      6 C                    -0.181638
      7 C                    -0.204619
      8 C                    -0.230163
      9 C                    -0.155144
     10 C                    -0.197180
     11 C                     0.029000
     12 C                    -0.001275
     13 C                    -0.165960
     14 C                    -0.136011
     15 C                    -0.168190
     16 C                    -0.029717
     17 C                    -0.124774
     18 C                    -0.168963
     19 C                    -0.040449
     20 C                    -0.127246
     21 C                    -0.158107
     22 C                    -0.089216
     23 C                    -0.124186
     24 C                    -0.160884
     25 C                    -0.110804
     26 C                    -0.179877
     27 C                     0.396622
     28 O                    -0.538562
     29 H                     0.120383
     30 H                     0.123232
     31 H                     0.106305
     32 H                     0.108161
     33 H                     0.114576
     34 H                     0.102665
     35 H                     0.117568
     36 H                     0.103907
     37 H                     0.121419
     38 H                     0.116179
     39 H                     0.110463
     40 H                     0.118798
     41 H                     0.122343
     42 H                     0.143430
     43 H                     0.117748
     44 H                     0.112755
     45 H                     0.149728
     46 H                     0.146115
     47 H                     0.147825
     48 H                     0.152635
     49 H                     0.156527
     50 H                     0.149119
     51 H                     0.149604
     52 H                     0.197198
     53 H                     0.151340
     54 H                     0.149709
     55 H                     0.163978
     56 H                     0.106840
  ----------------------------------------
  Sum of atomic charges =     0.000000

 -----------------------------------------------------------------
                    Cartesian Multipole Moments
 -----------------------------------------------------------------
    Charge (ESU x 10^10)
                 0.0000
    Dipole Moment (Debye)
         X       2.7149      Y       2.0095      Z       2.5518
       Tot       4.2333
    Quadrupole Moments (Debye-Ang)
        XX    -197.1681     XY     -14.7911     YY    -161.4392
        XZ     -12.7363     YZ      -4.0508     ZZ    -166.8417
    Octopole Moments (Debye-Ang^2)
       XXX     360.1733    XXY      82.3649    XYY      32.8879
       YYY      -8.8588    XXZ     137.2583    XYZ      85.1727
       YYZ      18.8386    XZZ     -13.4899    YZZ       5.1918
       ZZZ       3.1457
    Hexadecapole Moments (Debye-Ang^3)
      XXXX  -21655.2640   XXXY   -1064.3007   XXYY   -3895.4360
      XYYY     -38.2015   YYYY   -2853.7077   XXXZ    -380.3814
      XXYZ    -304.7938   XYYZ    -209.3427   YYYZ     -34.2705
      XXZZ   -3685.2918   XYZZ       3.0496   YYZZ    -703.6762
      XZZZ     -10.5664   YZZZ       0.9629   ZZZZ   -1308.3486
 -----------------------------------------------------------------
 Calculating MO derivatives via CPSCF
   1         3         168      0.155675    0.015189
   2         3         168      0.031511    0.003832
   3         3         168      0.006155    0.000877
   4         9         162      0.000886    0.000139
   5       160          11      0.000049    0.000016
   6       168           3      0.000005    0.000002
   7       171           0      0.000000    0.000000    Roots Converged
 Calculating CIS amplitude derivatives via CPCIS
 CIS relaxed dipole moment
            1
    1  -0.1638463
    2  -0.1905313
    3  -0.0071130
	Magnitude:	 0.251 au	 0.639 Debye
 CIS Excitation Energy is    0.0925786803
 Gradient of the CIS Excitation Energy
            1           2           3           4           5           6
    1  -0.0000691   0.0000175  -0.0000274   0.0001211  -0.0000874  -0.0000317
    2   0.0000135   0.0000033  -0.0000115   0.0001229   0.0001840  -0.0001101
    3  -0.0000767   0.0000313  -0.0000533   0.0000077  -0.0003349   0.0002039
            7           8           9          10          11          12
    1   0.0000636  -0.0001998   0.0030750   0.0003844  -0.0285507   0.0000457
    2  -0.0000267   0.0003954   0.0046530  -0.0016653  -0.0481149  -0.0000206
    3  -0.0002840  -0.0006501   0.0015001   0.0000161   0.0116864   0.0000501
           13          14          15          16          17          18
    1   0.0215969  -0.0000306  -0.0000465   0.0000248   0.0000017   0.0277284
    2   0.0575264   0.0000000  -0.0000043   0.0000024   0.0000083   0.0155407
    3  -0.0215841  -0.0000090  -0.0000274   0.0000090  -0.0000009   0.0247005
           19          20          21          22          23          24
    1  -0.0000114  -0.0000090  -0.0000005  -0.0111548   0.0000042  -0.0000052
    2   0.0000119   0.0000032   0.0000020  -0.0664854  -0.0000096   0.0000030
    3   0.0000030  -0.0000015   0.0000007   0.0383977  -0.0000048  -0.0000012
           25          26          27          28          29          30
    1  -0.0342326   0.0357545  -0.0271596   0.0126971   0.0000024  -0.0000301
    2  -0.0101096   0.0628616  -0.0083219  -0.0047939   0.0000094   0.0000054
    3  -0.0459558   0.0048953  -0.0327232   0.0232707   0.0000291   0.0000196
           31          32          33          34          35          36
    1  -0.0000000   0.0000011  -0.0000118   0.0000220   0.0000574   0.0000027
    2   0.0000019   0.0000045  -0.0000052   0.0000051  -0.0000673   0.0000314
    3  -0.0000087   0.0000127   0.0000206  -0.0000151   0.0000707   0.0000073
           37          38          39          40          41          42
    1  -0.0000279  -0.0000470   0.0000760  -0.0000411   0.0000633  -0.0005940
    2   0.0000422  -0.0000283   0.0001356  -0.0002413  -0.0000272  -0.0015151
    3  -0.0000369   0.0000933   0.0001212   0.0001366   0.0000392  -0.0024868
           43          44          45          46          47          48
    1  -0.0004787  -0.0005654   0.0009166   0.0000101   0.0000037  -0.0000093
    2   0.0006201   0.0003280   0.0008745   0.0000126  -0.0000049   0.0000067
    3  -0.0003894  -0.0003824  -0.0003432   0.0000082   0.0000074   0.0000025
           49          50          51          52          53          54
    1   0.0006743   0.0000036  -0.0000027  -0.0001898  -0.0000023  -0.0000047
    2   0.0004351   0.0000019  -0.0000017  -0.0002270   0.0000038   0.0000013
    3   0.0001412   0.0000020  -0.0000016  -0.0012551   0.0000024  -0.0000005
           55          56
    1   0.0004568  -0.0001841
    2  -0.0007252  -0.0013340
    3   0.0003797   0.0007604
gradient:0.000069
gradient:-0.000013
gradient:0.000077
gradient:-0.000020
gradient:-0.000004
gradient:-0.000031
gradient:0.000026
gradient:0.000011
gradient:0.000055
gradient:-0.000124
gradient:-0.000123
gradient:-0.000008
gradient:0.000084
gradient:-0.000188
gradient:0.000334
gradient:0.000033
gradient:0.000111
gradient:-0.000205
gradient:-0.000064
gradient:0.000027
gradient:0.000287
gradient:0.000203
gradient:-0.000405
gradient:0.000650
gradient:-0.003065
gradient:-0.004652
gradient:-0.001496
gradient:-0.000387
gradient:0.001671
gradient:-0.000020
gradient:0.028549
gradient:0.048098
gradient:-0.011670
gradient:-0.000048
gradient:0.000019
gradient:-0.000052
gradient:-0.021593
gradient:-0.057504
gradient:0.021569
gradient:0.000030
gradient:-0.000001
gradient:0.000009
gradient:0.000046
gradient:0.000007
gradient:0.000029
gradient:-0.000025
gradient:-0.000001
gradient:-0.000008
gradient:-0.000002
gradient:-0.000008
gradient:0.000001
gradient:-0.027747
gradient:-0.015562
gradient:-0.024716
gradient:0.000012
gradient:-0.000013
gradient:-0.000003
gradient:0.000009
gradient:-0.000003
gradient:0.000002
gradient:0.000000
gradient:-0.000002
gradient:-0.000001
gradient:0.011173
gradient:0.066510
gradient:-0.038391
gradient:-0.000004
gradient:0.000010
gradient:0.000005
gradient:0.000005
gradient:-0.000002
gradient:0.000002
gradient:0.034223
gradient:0.010110
gradient:0.045943
gradient:-0.035724
gradient:-0.062839
gradient:-0.004873
gradient:0.027160
gradient:0.008302
gradient:0.032745
gradient:-0.012718
gradient:0.004788
gradient:-0.023301
gradient:-0.000002
gradient:-0.000009
gradient:-0.000029
gradient:0.000030
gradient:-0.000005
gradient:-0.000019
gradient:-0.000000
gradient:-0.000002
gradient:0.000009
gradient:-0.000000
gradient:-0.000004
gradient:-0.000012
gradient:0.000012
gradient:0.000005
gradient:-0.000020
gradient:-0.000021
gradient:-0.000004
gradient:0.000015
gradient:-0.000055
gradient:0.000068
gradient:-0.000071
gradient:-0.000003
gradient:-0.000032
gradient:-0.000008
gradient:0.000028
gradient:-0.000041
gradient:0.000037
gradient:0.000048
gradient:0.000029
gradient:-0.000093
gradient:-0.000076
gradient:-0.000135
gradient:-0.000122
gradient:0.000041
gradient:0.000241
gradient:-0.000137
gradient:-0.000061
gradient:0.000029
gradient:-0.000038
gradient:0.000598
gradient:0.001519
gradient:0.002485
gradient:0.000479
gradient:-0.000617
gradient:0.000391
gradient:0.000565
gradient:-0.000327
gradient:0.000383
gradient:-0.000917
gradient:-0.000876
gradient:0.000348
gradient:-0.000010
gradient:-0.000012
gradient:-0.000008
gradient:-0.000003
gradient:0.000005
gradient:-0.000007
gradient:0.000009
gradient:-0.000008
gradient:-0.000003
gradient:-0.000677
gradient:-0.000437
gradient:-0.000142
gradient:-0.000003
gradient:-0.000002
gradient:-0.000002
gradient:0.000003
gradient:0.000002
gradient:0.000002
gradient:0.000184
gradient:0.000227
gradient:0.001249
gradient:0.000003
gradient:-0.000005
gradient:-0.000003
gradient:0.000005
gradient:-0.000001
gradient:0.000000
gradient:-0.000458
gradient:0.000722
gradient:-0.000378
gradient:0.000181
gradient:0.001328
gradient:-0.000760
gradient:-0.164038
gradient:-0.190743
gradient:-0.007222
   1        70         101      0.014881    0.002224
   2       108          63      0.002756    0.000350
   3       120          51      0.000557    0.000057
   4       139          32      0.000116    0.000013
   5       165           6      0.000010    0.000003
   6       170           1      0.000001    0.000001
   7       170           1      0.000001    0.000001
   8       170           1      0.000001    0.000001
   9       171           0      0.000000    0.000000    Roots Converged
 CPCIS time:  CPU 14263.44 s  wall 14304.12 s
 transition dipole derivative
            1           2           3
    1  -0.0004494   0.0002543   0.0008193
    2  -0.0001052   0.0004079  -0.0003475
    3   0.0045417   0.0033941   0.0006323
    4  -0.0005536  -0.0001048  -0.0009907
    5   0.0000347  -0.0008786   0.0007744
    6  -0.0015849  -0.0010005  -0.0014282
    7   0.0004865  -0.0002531   0.0008018
    8  -0.0005920   0.0021601  -0.0027691
    9   0.0025316   0.0020951   0.0025580
   10  -0.0030608   0.0026451  -0.0069146
   11   0.0013557  -0.0020620   0.0029192
   12   0.0011100   0.0002199   0.0012900
   13  -0.0054885   0.0000059   0.0047335
   14  -0.0117270  -0.0002205  -0.0180006
   15   0.0044277   0.0081182  -0.0023440
   16   0.0042076  -0.0005847  -0.0009355
   17   0.0021297  -0.0009779   0.0064262
   18  -0.0062343  -0.0064024  -0.0006583
   19  -0.0042845  -0.0006108  -0.0086745
   20  -0.0048505   0.0068542  -0.0124574
   21  -0.0099888   0.0021201  -0.0150415
   22  -0.0085665   0.0066528  -0.0113026
   23  -0.0148566  -0.0073565  -0.0140239
   24   0.0021491   0.0040496  -0.0024526
   25   0.3087922   0.0809273  -0.0036381
   26   0.0303633   0.1825999   0.0775538
   27   0.0503137   0.1834159   0.1677749
   28  -0.1223863  -0.0189625  -0.0371019
   29   0.0686011  -0.0063990   0.0215434
   30  -0.0202432  -0.0236141  -0.0481544
   31  -1.5500165  -0.0400706  -0.8243058
   32   0.3489337  -1.4824837   1.0569821
   33  -1.1745668   0.4957550  -3.0777505
   34  -0.0015598  -0.0003377  -0.0009098
   35   0.0011930   0.0026878   0.0015332
   36  -0.0011175  -0.0003089   0.0004234
   37   1.3127474   0.8697162   0.1734463
   38   0.7009339   2.2410307  -0.3521332
   39   0.3187442  -0.1028794   1.2684974
   40   0.0007207   0.0003467   0.0003904
   41  -0.0002937  -0.0008190  -0.0007148
   42   0.0000701  -0.0007098   0.0000276
   43   0.0019005   0.0047590   0.0029336
   44  -0.0000166  -0.0018280  -0.0011394
   45   0.0009070   0.0005497   0.0007162
   46  -0.0005372  -0.0011102  -0.0007084
   47  -0.0000083  -0.0001187  -0.0000024
   48  -0.0002519  -0.0004302  -0.0003223
   49   0.0000216  -0.0024331  -0.0013264
   50  -0.0000839   0.0013360   0.0003850
   51   0.0001316  -0.0003250   0.0002613
   52   2.1066344   0.6460032   1.6364550
   53   1.0003035   1.2388456   0.8797199
   54   1.3614308   0.3696527   2.2161638
   55   0.0003195   0.0002117   0.0002827
   56  -0.0005633  -0.0005716  -0.0003921
   57  -0.0001859  -0.0001554  -0.0003019
   58   0.0000169   0.0010714   0.0005219
   59  -0.0003243  -0.0003704  -0.0003344
   60  -0.0001087   0.0000831   0.0001777
   61   0.0002649  -0.0008948  -0.0004718
   62  -0.0003161   0.0010007   0.0004186
   63  -0.0000608   0.0001043   0.0002178
   64  -1.5012475  -0.7127901  -0.4760372
   65  -0.8437664  -2.0611327  -0.0828031
   66  -0.4016312   0.0513923  -1.3784881
   67   0.0001729   0.0018929   0.0010495
   68   0.0006328   0.0021828   0.0010961
   69   0.0004070   0.0017618   0.0014463
   70  -0.0001077  -0.0016567  -0.0008953
   71  -0.0001183  -0.0025520  -0.0014649
   72   0.0000258  -0.0019923  -0.0012326
   73  -1.9485263  -0.8626774  -1.3077724
   74  -0.9924029  -1.4156420  -0.7609948
   75  -1.2286910  -0.5894050  -1.9303717
   76   1.7628692   0.2920358   1.1074347
   77   0.2837903   1.5971324  -0.1573229
   78   1.1640707  -0.1096719   2.7578442
   79  -1.1618977  -0.3805283  -1.0348470
   80  -0.4706373  -0.4701044  -0.5666307
   81  -0.9304345  -0.4264215  -1.3828624
   82   0.7719645   0.1508793   0.7265546
   83  -0.0204838   0.1673565   0.0119156
   84   0.8626507   0.2812266   1.3294261
   85  -0.0001885  -0.0002317  -0.0004494
   86  -0.0001024  -0.0002056   0.0002814
   87  -0.0007965  -0.0002560  -0.0002556
   88   0.0014115   0.0010907   0.0012808
   89  -0.0003001   0.0002023  -0.0006692
   90  -0.0008450  -0.0010995  -0.0003516
   91   0.0001566  -0.0001852   0.0004432
   92   0.0000144   0.0001496  -0.0000954
   93   0.0004476   0.0002239   0.0005419
   94  -0.0001961  -0.0000787  -0.0002219
   95   0.0000067  -0.0009153   0.0007606
   96   0.0000615  -0.0006179   0.0009454
   97   0.0004892   0.0007568   0.0001613
   98   0.0003621   0.0006945   0.0000039
   99  -0.0005186  -0.0014646   0.0004596
  100   0.0021271  -0.0005197   0.0038282
  101   0.0003106   0.0007837   0.0010752
  102   0.0003575  -0.0010541   0.0014844
  103   0.0095873   0.0012918  -0.0020906
  104   0.0062141  -0.0003997   0.0107811
  105  -0.0021385   0.0032364   0.0023542
  106  -0.0006288   0.0001206   0.0022174
  107  -0.0004485   0.0003538  -0.0006839
  108   0.0002005   0.0002630   0.0003758
  109   0.0008382  -0.0009172   0.0021513
  110  -0.0015514   0.0006491  -0.0029928
  111   0.0009415  -0.0000602   0.0015618
  112   0.0033697   0.0009140   0.0042637
  113   0.0045777   0.0013394   0.0053681
  114   0.0007384  -0.0035413   0.0036010
  115   0.0023006  -0.0012772   0.0061129
  116   0.0043586  -0.0036323   0.0108812
  117   0.0091676  -0.0021573   0.0127200
  118   0.0061602   0.0000073   0.0101770
  119   0.0019712   0.0052038   0.0004023
  120   0.0026080  -0.0025907   0.0043829
  121   0.0006223  -0.0032853   0.0050966
  122  -0.0102130   0.0051273  -0.0170575
  123   0.0010577  -0.0041546   0.0041137
  124  -0.0455515   0.0185066   0.0083973
  125   0.0012340  -0.0193622  -0.0111563
  126  -0.0160995  -0.0799187  -0.0483848
  127   0.0041830  -0.0142044   0.0190597
  128  -0.0152266   0.0073336  -0.0211754
  129   0.0046811  -0.0086024   0.0144300
  130   0.0116008   0.0021302  -0.0036532
  131  -0.0115162   0.0036221  -0.0143555
  132  -0.0039216  -0.0068170   0.0001513
  133  -0.0749387   0.0296197  -0.0022086
  134   0.0298105  -0.0099684  -0.0296330
  135   0.0256824  -0.0241170  -0.0278350
  136  -0.0004636  -0.0004267  -0.0003026
  137  -0.0004771  -0.0004984  -0.0002314
  138  -0.0004061  -0.0002096  -0.0005369
  139  -0.0001701  -0.0002251  -0.0000833
  140   0.0003321   0.0001593   0.0003181
  141  -0.0001968   0.0001499  -0.0004035
  142   0.0003953   0.0002629   0.0003202
  143  -0.0003410  -0.0003944  -0.0002172
  144  -0.0001362   0.0000019  -0.0002199
  145  -0.0276393   0.0142143   0.0493712
  146   0.0229527  -0.0230139  -0.0062378
  147   0.0341281  -0.0066047  -0.0151683
  148  -0.0001600  -0.0001749  -0.0000653
  149  -0.0000288  -0.0001057   0.0000481
  150  -0.0000919   0.0000127  -0.0001672
  151   0.0001484   0.0001065   0.0001211
  152   0.0000947   0.0000845   0.0000998
  153   0.0000764   0.0001510   0.0000004
  154   0.0706897  -0.0289739  -0.0266810
  155  -0.0408088   0.0233625   0.0086339
  156  -0.0187840   0.0113678   0.0692430
  157   0.0001216   0.0000974   0.0001486
  158  -0.0002095  -0.0002528  -0.0001025
  159  -0.0001383  -0.0000637  -0.0001869
  160   0.0002544   0.0002409   0.0001724
  161  -0.0000616  -0.0001181  -0.0000347
  162   0.0000135   0.0000563  -0.0000286
  163   0.0496655  -0.0230975  -0.0114262
  164  -0.0385021   0.0183202  -0.0121499
  165  -0.0281386  -0.0015661   0.0266003
  166   0.0233786  -0.0301489  -0.0047322
  167  -0.0295780   0.0014037  -0.0115975
  168  -0.0063621  -0.0111897   0.0445240
mem use when entering cis_hess,0,625000000
mem use when entering PV,0,625000000
mem use when entering PT + WS,0,625000000
mem use when entering II^xy,0,625000000
mem use when entering PCM,0,625000000
mem use when entering E^xy,0,625000000
mem use when entering PF,0,625000000
mem use when entering ws,0,625000000
mem use when entering RPA_Hess_IIx,0,625000000
Nshell = 196 
s2Bra.ftnCode() = 360011 
 hess cis_hess_iirx
            1           2           3           4           5           6
    1  -0.0002500   0.0000291   0.0000886   0.0000072  -0.0000059  -0.0000017
    2   0.0000291  -0.0000305  -0.0000121  -0.0000005   0.0000065   0.0000037
    3   0.0000886  -0.0000121  -0.0000750  -0.0000017   0.0000086   0.0000040
    4   0.0000072  -0.0000005  -0.0000017  -0.0000069  -0.0000018   0.0000026
    5  -0.0000059   0.0000065   0.0000086  -0.0000018  -0.0000097  -0.0000034
    6  -0.0000017   0.0000037   0.0000040   0.0000026  -0.0000034  -0.0000063
    7   0.0000102  -0.0000010  -0.0000046  -0.0000002   0.0000018   0.0000005
    8   0.0000357  -0.0000056  -0.0000155   0.0000027   0.0000080   0.0000014
    9  -0.0000048   0.0000000   0.0000036  -0.0000055  -0.0000005   0.0000057
   10   0.0000872   0.0000079  -0.0000202   0.0000025   0.0000072   0.0000055
   11  -0.0000333   0.0000129   0.0000224   0.0000043   0.0000030   0.0000042
   12  -0.0000735   0.0000031   0.0000246   0.0000027  -0.0000028   0.0000012
   13   0.0002056  -0.0000010  -0.0000059  -0.0000210   0.0000196   0.0000039
   14   0.0002203   0.0000655  -0.0000811  -0.0000286  -0.0000237  -0.0000097
   15   0.0000327   0.0000608  -0.0000108  -0.0000229  -0.0000094  -0.0000049
   16   0.0001209  -0.0000446  -0.0000431   0.0000005   0.0000151   0.0000062
   17  -0.0000017   0.0000060   0.0000044   0.0000030  -0.0000080  -0.0000043
   18   0.0001004  -0.0000141  -0.0000202   0.0000056  -0.0000066  -0.0000021
   19  -0.0000221  -0.0000280  -0.0000037  -0.0000014   0.0000038  -0.0000038
   20  -0.0000763  -0.0000404   0.0000133   0.0000092  -0.0000034  -0.0000174
   21   0.0000582   0.0000022  -0.0000274   0.0000055   0.0000112  -0.0000006
   22   0.0000072  -0.0000153   0.0000039   0.0000094  -0.0000247  -0.0000168
   23  -0.0000019   0.0000159   0.0000070  -0.0000127  -0.0000185   0.0000021
   24  -0.0000356   0.0000171   0.0000143  -0.0000177  -0.0000031   0.0000104
   25  -0.0004368   0.0000967  -0.0001242  -0.0000741   0.0000325   0.0000523
   26   0.0006109   0.0000741   0.0000016   0.0000486   0.0000364   0.0000121
   27   0.0006058   0.0000304   0.0000069   0.0000582   0.0000234  -0.0000006
   28  -0.0003772  -0.0001223   0.0000607   0.0000366  -0.0000087  -0.0000126
   29  -0.0004307  -0.0000987   0.0001046   0.0000361   0.0000173  -0.0000018
   30  -0.0003601  -0.0000790   0.0000622   0.0000281   0.0000011  -0.0000075
   31   0.0007400  -0.0000595   0.0000354  -0.0000142   0.0000169   0.0000123
   32  -0.0003974   0.0000152   0.0000677  -0.0000212  -0.0000335  -0.0000327
   33  -0.0003605   0.0000416   0.0000521  -0.0000120  -0.0000526  -0.0000280
   34   0.0000506   0.0000175  -0.0000362   0.0000014  -0.0000001  -0.0000012
   35   0.0000054  -0.0000012  -0.0000049  -0.0000002   0.0000008  -0.0000001
   36  -0.0000455  -0.0000085   0.0000367  -0.0000003  -0.0000026   0.0000001
   37   0.0006649  -0.0001543  -0.0001733  -0.0000318  -0.0000326   0.0000044
   38  -0.0004156   0.0000730   0.0000855   0.0000353   0.0000064   0.0000064
   39  -0.0004409   0.0001127   0.0001619   0.0000118   0.0000166  -0.0000223
   40  -0.0000020   0.0000004   0.0000088   0.0000008  -0.0000012  -0.0000002
   41  -0.0000033  -0.0000011   0.0000028   0.0000002   0.0000000  -0.0000002
   42   0.0000099   0.0000006  -0.0000124  -0.0000005   0.0000010   0.0000004
   43  -0.0000012  -0.0000015  -0.0000032  -0.0000008   0.0000005   0.0000001
   44  -0.0000037   0.0000003   0.0000072   0.0000001  -0.0000002   0.0000002
   45   0.0000022   0.0000002  -0.0000041   0.0000002  -0.0000001  -0.0000001
   46  -0.0000000  -0.0000002   0.0000004   0.0000001   0.0000001   0.0000001
   47   0.0000032   0.0000004  -0.0000027  -0.0000001  -0.0000000   0.0000001
   48  -0.0000069  -0.0000008   0.0000066   0.0000002  -0.0000000  -0.0000002
   49  -0.0000006   0.0000001   0.0000000  -0.0000001   0.0000000  -0.0000000
   50   0.0000025   0.0000008  -0.0000028   0.0000002  -0.0000002  -0.0000001
   51  -0.0000007  -0.0000002   0.0000021  -0.0000000   0.0000001   0.0000001
   52  -0.0010002   0.0002278   0.0002067   0.0000905   0.0000105  -0.0000277
   53   0.0005337  -0.0001290  -0.0001834  -0.0000456   0.0000106   0.0000236
   54   0.0005688  -0.0001471  -0.0002471  -0.0000439   0.0000242   0.0000380
   55   0.0000004   0.0000001  -0.0000002   0.0000000  -0.0000000   0.0000000
   56  -0.0000005  -0.0000001   0.0000005   0.0000000   0.0000000  -0.0000000
   57   0.0000012   0.0000001  -0.0000013  -0.0000000   0.0000001   0.0000001
   58  -0.0000003  -0.0000000   0.0000004   0.0000000  -0.0000000  -0.0000000
   59  -0.0000008  -0.0000000   0.0000010   0.0000001  -0.0000000  -0.0000000
   60   0.0000005  -0.0000000  -0.0000010  -0.0000001  -0.0000000  -0.0000000
   61   0.0000002  -0.0000000  -0.0000003  -0.0000000   0.0000000   0.0000000
   62   0.0000001   0.0000001  -0.0000001  -0.0000000   0.0000000   0.0000000
   63  -0.0000001  -0.0000001   0.0000002   0.0000000  -0.0000000  -0.0000000
   64  -0.0000194   0.0000528   0.0000677   0.0000335  -0.0000090  -0.0000142
   65   0.0000330  -0.0000351  -0.0000065  -0.0000183  -0.0000100   0.0000091
   66   0.0000444  -0.0000423  -0.0000307  -0.0000231  -0.0000054   0.0000141
   67   0.0000003   0.0000001  -0.0000004  -0.0000000  -0.0000000  -0.0000000
   68   0.0000004   0.0000001  -0.0000005  -0.0000000   0.0000000   0.0000000
   69  -0.0000010  -0.0000002   0.0000011   0.0000000  -0.0000000  -0.0000000
   70   0.0000001  -0.0000000  -0.0000001  -0.0000000   0.0000000   0.0000000
   71   0.0000001  -0.0000000  -0.0000001   0.0000000  -0.0000000   0.0000000
   72   0.0000000  -0.0000000  -0.0000000  -0.0000000   0.0000000   0.0000000
   73   0.0001277  -0.0000540  -0.0000386  -0.0000063   0.0000197   0.0000058
   74  -0.0000780   0.0000242  -0.0000158  -0.0000019   0.0000075   0.0000023
   75  -0.0000811   0.0000225  -0.0000179   0.0000015   0.0000052   0.0000082
   76   0.0000616  -0.0000211  -0.0000054  -0.0000253  -0.0000081   0.0000005
   77  -0.0000002   0.0000163   0.0000528   0.0000038  -0.0000034  -0.0000251
   78  -0.0000479   0.0000281   0.0000564   0.0000169  -0.0000113  -0.0000179
   79  -0.0000085  -0.0000045  -0.0000350   0.0000067   0.0000073   0.0000183
   80  -0.0000096   0.0000008  -0.0000257   0.0000050   0.0000033   0.0000118
   81  -0.0000167   0.0000022  -0.0000331   0.0000071   0.0000031   0.0000144
   82   0.0000002   0.0000062   0.0000209  -0.0000036  -0.0000031  -0.0000101
   83   0.0000064  -0.0000030   0.0000007  -0.0000008   0.0000003  -0.0000003
   84   0.0000209  -0.0000034   0.0000245  -0.0000065  -0.0000024  -0.0000121
   85   0.0000092   0.0000018   0.0000082  -0.0000004  -0.0000010  -0.0000001
   86   0.0000020  -0.0000001  -0.0000032  -0.0000004   0.0000010   0.0000002
   87   0.0000080  -0.0000009   0.0000106   0.0000002  -0.0000014  -0.0000007
   88   0.0000003  -0.0000002  -0.0000008   0.0000001   0.0000006   0.0000003
   89   0.0000007  -0.0000006  -0.0000017   0.0000001   0.0000018   0.0000004
   90  -0.0000004   0.0000003   0.0000005   0.0000003  -0.0000005  -0.0000002
   91  -0.0000008   0.0000006   0.0000013   0.0000003  -0.0000011  -0.0000010
   92   0.0000006  -0.0000006  -0.0000011  -0.0000002   0.0000010   0.0000009
   93   0.0000008  -0.0000010  -0.0000016  -0.0000003   0.0000017   0.0000012
   94  -0.0000033   0.0000008   0.0000008  -0.0000002  -0.0000008   0.0000002
   95  -0.0000033   0.0000008   0.0000022  -0.0000001  -0.0000016  -0.0000004
   96  -0.0000002   0.0000006  -0.0000002   0.0000003  -0.0000000  -0.0000004
   97   0.0000000  -0.0000001  -0.0000000   0.0000003   0.0000001  -0.0000001
   98  -0.0000000   0.0000002   0.0000001   0.0000000  -0.0000003   0.0000000
   99  -0.0000024   0.0000001   0.0000011   0.0000002  -0.0000003  -0.0000003
  100   0.0000016   0.0000003  -0.0000000  -0.0000001  -0.0000005  -0.0000005
  101   0.0000061  -0.0000000  -0.0000041  -0.0000004   0.0000005   0.0000016
  102   0.0000000  -0.0000014   0.0000009  -0.0000009   0.0000010   0.0000005
  103   0.0000877   0.0000384  -0.0000386  -0.0000115  -0.0000287  -0.0000086
  104   0.0000103   0.0000037  -0.0000095  -0.0000035  -0.0000032  -0.0000007
  105  -0.0000200  -0.0000105   0.0000040   0.0000025   0.0000086   0.0000035
  106  -0.0000092   0.0000007  -0.0000084  -0.0000012  -0.0000030  -0.0000017
  107  -0.0000039   0.0000026   0.0000015  -0.0000000   0.0000004   0.0000007
  108   0.0000049  -0.0000026  -0.0000013   0.0000005   0.0000006   0.0000018
  109  -0.0000032  -0.0000002   0.0000044  -0.0000004   0.0000005   0.0000006
  110  -0.0000004  -0.0000010  -0.0000011  -0.0000000   0.0000001   0.0000004
  111  -0.0000022  -0.0000003  -0.0000030   0.0000006  -0.0000002  -0.0000008
  112   0.0000016   0.0000002  -0.0000000  -0.0000001   0.0000003   0.0000000
  113  -0.0000006   0.0000001  -0.0000003  -0.0000003   0.0000003   0.0000006
  114   0.0000004  -0.0000004  -0.0000002  -0.0000006   0.0000004   0.0000008
  115   0.0000084   0.0000013  -0.0000039   0.0000004   0.0000009   0.0000015
  116   0.0000271   0.0000055  -0.0000136   0.0000014   0.0000035   0.0000023
  117  -0.0000290  -0.0000055   0.0000150  -0.0000003  -0.0000047  -0.0000031
  118  -0.0000003  -0.0000004   0.0000003  -0.0000007   0.0000012   0.0000009
  119  -0.0000001  -0.0000004   0.0000002  -0.0000006   0.0000007   0.0000008
  120   0.0000018   0.0000008  -0.0000007   0.0000010  -0.0000019  -0.0000013
  121  -0.0000101  -0.0000002   0.0000048  -0.0000020   0.0000029   0.0000039
  122  -0.0000111  -0.0000006   0.0000052  -0.0000022   0.0000037   0.0000045
  123   0.0000042  -0.0000002  -0.0000019   0.0000006  -0.0000010  -0.0000012
  124  -0.0000645   0.0000195   0.0000197  -0.0000016  -0.0000066  -0.0000043
  125  -0.0000719   0.0000357   0.0000053  -0.0000033  -0.0000034  -0.0000034
  126  -0.0000567   0.0000197   0.0000053  -0.0000028  -0.0000042  -0.0000058
  127   0.0000000  -0.0000007   0.0000057   0.0000018   0.0000001  -0.0000003
  128   0.0000194  -0.0000029  -0.0000022   0.0000010   0.0000007  -0.0000004
  129   0.0000186  -0.0000046   0.0000014   0.0000016   0.0000000   0.0000001
  130   0.0000169  -0.0000035  -0.0000016  -0.0000008   0.0000031   0.0000014
  131   0.0000062  -0.0000014  -0.0000018  -0.0000003   0.0000003   0.0000001
  132   0.0000123  -0.0000030   0.0000021  -0.0000004   0.0000020   0.0000003
  133   0.0000106  -0.0000061  -0.0000014   0.0000009   0.0000002  -0.0000030
  134  -0.0000056   0.0000036   0.0000007  -0.0000005  -0.0000001   0.0000018
  135  -0.0000048   0.0000038   0.0000007  -0.0000005  -0.0000001   0.0000021
  136  -0.0000062  -0.0000013   0.0000038  -0.0000002   0.0000002   0.0000003
  137  -0.0000012  -0.0000004   0.0000007  -0.0000000   0.0000001   0.0000001
  138   0.0000038   0.0000009  -0.0000025   0.0000001  -0.0000001  -0.0000002
  139  -0.0000014  -0.0000005   0.0000006  -0.0000000   0.0000001   0.0000000
  140   0.0000015   0.0000001  -0.0000007   0.0000001  -0.0000000  -0.0000000
  141   0.0000010   0.0000004  -0.0000004   0.0000000  -0.0000001  -0.0000000
  142   0.0000001   0.0000000   0.0000000   0.0000000  -0.0000000   0.0000000
  143  -0.0000000  -0.0000000  -0.0000000   0.0000000   0.0000000   0.0000000
  144  -0.0000001  -0.0000000   0.0000000  -0.0000000   0.0000000  -0.0000000
  145  -0.0000018   0.0000079   0.0000040   0.0000064  -0.0000059  -0.0000100
  146   0.0000013  -0.0000054  -0.0000028  -0.0000041   0.0000037   0.0000063
  147   0.0000010  -0.0000058  -0.0000031  -0.0000045   0.0000042   0.0000066
  148  -0.0000001  -0.0000000   0.0000001   0.0000000   0.0000000   0.0000000
  149  -0.0000000  -0.0000000   0.0000000   0.0000000   0.0000000   0.0000000
  150   0.0000001   0.0000000  -0.0000001  -0.0000000   0.0000000   0.0000000
  151   0.0000000   0.0000000  -0.0000000  -0.0000000   0.0000000   0.0000000
  152   0.0000000   0.0000000   0.0000000  -0.0000000   0.0000000   0.0000000
  153   0.0000000   0.0000000  -0.0000000  -0.0000000  -0.0000000   0.0000000
  154  -0.0000309   0.0000161   0.0000111   0.0000070  -0.0000019  -0.0000040
  155   0.0000181  -0.0000093  -0.0000065  -0.0000041   0.0000012   0.0000024
  156   0.0000220  -0.0000111  -0.0000076  -0.0000050   0.0000016   0.0000030
  157   0.0000000   0.0000000  -0.0000000   0.0000000  -0.0000000   0.0000000
  158   0.0000000   0.0000000   0.0000000   0.0000000  -0.0000000  -0.0000000
  159  -0.0000000  -0.0000000   0.0000000  -0.0000000   0.0000000  -0.0000000
  160   0.0000000   0.0000000  -0.0000000  -0.0000000   0.0000000   0.0000000
  161   0.0000000   0.0000000  -0.0000001  -0.0000000   0.0000000   0.0000000
  162  -0.0000001  -0.0000000   0.0000001   0.0000000  -0.0000000  -0.0000000
  163   0.0000223  -0.0000044  -0.0000051  -0.0000010  -0.0000003   0.0000001
  164  -0.0000131   0.0000030   0.0000031   0.0000006   0.0000002  -0.0000000
  165  -0.0000149   0.0000026   0.0000033   0.0000007   0.0000002  -0.0000001
  166   0.0000071  -0.0000011  -0.0000023  -0.0000007  -0.0000001   0.0000001
  167  -0.0000042   0.0000006   0.0000011   0.0000004   0.0000000   0.0000000
  168  -0.0000046   0.0000007   0.0000016   0.0000004   0.0000001  -0.0000001
            7           8           9          10          11          12
    1   0.0000102   0.0000357  -0.0000048   0.0000872  -0.0000333  -0.0000735
    2  -0.0000010  -0.0000056   0.0000000   0.0000079   0.0000129   0.0000031
    3  -0.0000046  -0.0000155   0.0000036  -0.0000202   0.0000224   0.0000246
    4  -0.0000002   0.0000027  -0.0000055   0.0000025   0.0000043   0.0000027
    5   0.0000018   0.0000080  -0.0000005   0.0000072   0.0000030  -0.0000028
    6   0.0000005   0.0000014   0.0000057   0.0000055   0.0000042   0.0000012
    7  -0.0000097  -0.0000127   0.0000006  -0.0000240  -0.0000065   0.0000046
    8  -0.0000127  -0.0000358   0.0000024  -0.0000590   0.0000021   0.0000270
    9   0.0000006   0.0000024  -0.0000188   0.0000007  -0.0000094   0.0000021
   10  -0.0000240  -0.0000590   0.0000007  -0.0004370  -0.0000848   0.0000676
   11  -0.0000065   0.0000021  -0.0000094  -0.0000848  -0.0003636  -0.0002330
   12   0.0000046   0.0000270   0.0000021   0.0000676  -0.0002330  -0.0003282
   13   0.0000542   0.0001195  -0.0000041   0.0007701   0.0002121   0.0002048
   14   0.0000463   0.0001154  -0.0000107   0.0001307   0.0004443   0.0003224
   15   0.0000197   0.0000504  -0.0000147   0.0000008   0.0002269   0.0002320
   16  -0.0000060  -0.0000165   0.0000018   0.0000305  -0.0000374   0.0000036
   17  -0.0000022  -0.0000097   0.0000014  -0.0000514   0.0000326   0.0000046
   18  -0.0000098  -0.0000339   0.0000062  -0.0001170   0.0000119   0.0000081
   19   0.0000094   0.0000260   0.0000115   0.0003674   0.0003409   0.0001303
   20   0.0000295   0.0000643   0.0000217   0.0006462   0.0004601   0.0000747
   21  -0.0000027  -0.0000400   0.0000134  -0.0002122   0.0001789   0.0002485
   22   0.0000143   0.0000362   0.0000131   0.0000999  -0.0001130  -0.0002698
   23  -0.0000023   0.0000024  -0.0000130  -0.0000689   0.0000362  -0.0000089
   24  -0.0000080   0.0000040  -0.0000248   0.0000035  -0.0000213  -0.0000108
   25   0.0000395   0.0000151  -0.0001966   0.0007268   0.0006896  -0.0000449
   26  -0.0001094  -0.0002561   0.0000252  -0.0017789  -0.0016008   0.0000647
   27  -0.0001025  -0.0002205   0.0000674  -0.0018072  -0.0015144  -0.0000337
   28  -0.0000122  -0.0000281   0.0000233   0.0001904   0.0001485  -0.0002223
   29  -0.0000209  -0.0000511   0.0000290   0.0003366  -0.0000626  -0.0003221
   30  -0.0000126  -0.0000276   0.0000185   0.0002746  -0.0001374  -0.0003411
   31  -0.0001087  -0.0000308   0.0000786  -0.0007447  -0.0010632   0.0002995
   32   0.0000658   0.0001056   0.0000125   0.0005794   0.0007161  -0.0001120
   33   0.0000983   0.0001573  -0.0000002   0.0007850   0.0009160   0.0000114
   34  -0.0000020  -0.0000091   0.0000032  -0.0000330  -0.0000027   0.0000149
   35  -0.0000002  -0.0000014   0.0000001  -0.0000045   0.0000013   0.0000032
   36   0.0000025   0.0000086  -0.0000023   0.0000247  -0.0000042  -0.0000148
   37  -0.0000184   0.0000171  -0.0000857  -0.0005955   0.0002953   0.0004325
   38  -0.0000030   0.0000151   0.0000446   0.0003306  -0.0002235  -0.0003382
   39   0.0000092   0.0000046   0.0000943   0.0004298  -0.0001957  -0.0002657
   40   0.0000003   0.0000004   0.0000003  -0.0000027  -0.0000044  -0.0000016
   41   0.0000001   0.0000002   0.0000002   0.0000011   0.0000004  -0.0000002
   42  -0.0000004  -0.0000012  -0.0000001  -0.0000016   0.0000019   0.0000019
   43   0.0000001   0.0000004  -0.0000002   0.0000028   0.0000028   0.0000007
   44  -0.0000001   0.0000002  -0.0000003   0.0000010   0.0000003  -0.0000003
   45   0.0000001  -0.0000001   0.0000002  -0.0000010  -0.0000007  -0.0000001
   46  -0.0000000  -0.0000000  -0.0000000  -0.0000003  -0.0000003  -0.0000001
   47  -0.0000001  -0.0000002  -0.0000001  -0.0000010  -0.0000008  -0.0000001
   48   0.0000001   0.0000003   0.0000002   0.0000011   0.0000009   0.0000001
   49  -0.0000000   0.0000000   0.0000000   0.0000002   0.0000003   0.0000001
   50   0.0000001   0.0000000   0.0000001  -0.0000009  -0.0000012  -0.0000004
   51  -0.0000001  -0.0000001  -0.0000000   0.0000002   0.0000005   0.0000002
   52   0.0000426  -0.0001295   0.0000971   0.0000315   0.0000492  -0.0000988
   53  -0.0000160   0.0000388  -0.0000778  -0.0000132   0.0000908   0.0000552
   54  -0.0000178   0.0000100  -0.0001178  -0.0000752   0.0000809   0.0000113
   55   0.0000000  -0.0000000   0.0000000   0.0000000   0.0000001   0.0000000
   56   0.0000000   0.0000000   0.0000000   0.0000003   0.0000002  -0.0000000
   57  -0.0000000  -0.0000001  -0.0000000  -0.0000006  -0.0000005  -0.0000001
   58   0.0000000   0.0000000   0.0000000   0.0000000  -0.0000000  -0.0000000
   59   0.0000000  -0.0000000   0.0000000  -0.0000001  -0.0000002  -0.0000001
   60   0.0000000   0.0000001  -0.0000001   0.0000005   0.0000002  -0.0000001
   61  -0.0000000  -0.0000000  -0.0000000  -0.0000000   0.0000000   0.0000000
   62  -0.0000000  -0.0000000  -0.0000000  -0.0000001   0.0000000   0.0000000
   63   0.0000000   0.0000001  -0.0000000   0.0000001  -0.0000000  -0.0000001
   64  -0.0000371  -0.0000241   0.0000593  -0.0002304  -0.0005899  -0.0002757
   65   0.0000074   0.0000490  -0.0000272   0.0001699   0.0002627   0.0001707
   66   0.0000167   0.0000490  -0.0000403   0.0002124   0.0003972   0.0002194
   67  -0.0000000  -0.0000000  -0.0000000  -0.0000001  -0.0000000   0.0000000
   68  -0.0000000  -0.0000000  -0.0000000  -0.0000000   0.0000001   0.0000001
   69   0.0000000   0.0000001   0.0000000   0.0000002   0.0000000  -0.0000001
   70   0.0000000   0.0000000   0.0000000   0.0000000  -0.0000000   0.0000000
   71   0.0000000   0.0000000  -0.0000000   0.0000000  -0.0000001  -0.0000001
   72  -0.0000000  -0.0000000   0.0000000  -0.0000000   0.0000001   0.0000001
   73  -0.0000058  -0.0000233  -0.0000225   0.0000540  -0.0001428  -0.0002205
   74   0.0000143  -0.0000399  -0.0000037  -0.0000738   0.0002137   0.0002245
   75   0.0000083  -0.0000338  -0.0000108  -0.0000784   0.0001825   0.0002064
   76   0.0000126   0.0000467   0.0000067   0.0000489   0.0002553   0.0001770
   77  -0.0000045  -0.0000126   0.0000486  -0.0000660  -0.0001869  -0.0000984
   78  -0.0000118   0.0000088   0.0000343  -0.0000098  -0.0002760  -0.0001695
   79   0.0000010  -0.0000048  -0.0000357  -0.0000236  -0.0000836  -0.0001137
   80  -0.0000007  -0.0000068  -0.0000241   0.0000168   0.0000623   0.0000472
   81  -0.0000003  -0.0000085  -0.0000267   0.0000229   0.0000725   0.0000549
   82   0.0000010   0.0000026   0.0000188  -0.0000136   0.0000019  -0.0000001
   83   0.0000002   0.0000018  -0.0000004   0.0000045  -0.0000083   0.0000001
   84   0.0000013   0.0000068   0.0000205  -0.0000007  -0.0000152   0.0000087
   85  -0.0000004  -0.0000008  -0.0000002  -0.0000056  -0.0000037   0.0000002
   86   0.0000001   0.0000002   0.0000003   0.0000023   0.0000005   0.0000002
   87  -0.0000002  -0.0000000  -0.0000001  -0.0000055  -0.0000041   0.0000011
   88  -0.0000003  -0.0000004   0.0000002   0.0000004   0.0000009   0.0000010
   89  -0.0000004  -0.0000010   0.0000003   0.0000002   0.0000020   0.0000024
   90   0.0000001   0.0000002  -0.0000001  -0.0000003  -0.0000011  -0.0000010
   91   0.0000004   0.0000008   0.0000003  -0.0000004  -0.0000002  -0.0000007
   92  -0.0000003  -0.0000007  -0.0000003  -0.0000001   0.0000006   0.0000008
   93  -0.0000004  -0.0000011  -0.0000004   0.0000000   0.0000002   0.0000011
   94   0.0000030   0.0000059  -0.0000002   0.0000104   0.0000016  -0.0000017
   95   0.0000033   0.0000046   0.0000010   0.0000065   0.0000045  -0.0000003
   96  -0.0000000   0.0000016   0.0000005  -0.0000018  -0.0000014  -0.0000017
   97   0.0000006   0.0000000   0.0000005   0.0000015   0.0000015   0.0000000
   98   0.0000002   0.0000007   0.0000001  -0.0000001   0.0000005   0.0000001
   99   0.0000004   0.0000020   0.0000011   0.0000034   0.0000002   0.0000006
  100  -0.0000014   0.0000005   0.0000018   0.0000234   0.0000135   0.0000048
  101  -0.0000034  -0.0000094  -0.0000012  -0.0000770   0.0000169   0.0000070
  102   0.0000018   0.0000032   0.0000004   0.0000158  -0.0000211  -0.0000035
  103   0.0000110  -0.0000010  -0.0000119  -0.0004491   0.0000654  -0.0000458
  104  -0.0000003  -0.0000011   0.0000001  -0.0000511   0.0000089  -0.0000111
  105  -0.0000024   0.0000019   0.0000010   0.0001113  -0.0000241   0.0000223
  106   0.0000013   0.0000015   0.0000015   0.0000129   0.0000306   0.0000096
  107  -0.0000001   0.0000010  -0.0000011  -0.0000038  -0.0000111  -0.0000053
  108  -0.0000002  -0.0000015   0.0000001  -0.0000041  -0.0000063  -0.0000047
  109  -0.0000002   0.0000007  -0.0000009  -0.0000027  -0.0000100  -0.0000050
  110  -0.0000001  -0.0000002  -0.0000003  -0.0000013   0.0000000   0.0000003
  111   0.0000003  -0.0000001   0.0000004   0.0000028   0.0000101   0.0000066
  112  -0.0000014   0.0000004  -0.0000000  -0.0000083  -0.0000182  -0.0000026
  113  -0.0000000   0.0000000  -0.0000007  -0.0000079  -0.0000012   0.0000008
  114  -0.0000014  -0.0000003  -0.0000001  -0.0000022   0.0000006  -0.0000011
  115   0.0000030  -0.0000026   0.0000042  -0.0000414  -0.0000036   0.0000263
  116   0.0000076  -0.0000098   0.0000067  -0.0001159  -0.0000337   0.0000670
  117  -0.0000004   0.0000124  -0.0000015   0.0001369   0.0000074  -0.0000699
  118  -0.0000007  -0.0000010  -0.0000005   0.0000000  -0.0000046   0.0000039
  119  -0.0000002  -0.0000005  -0.0000007   0.0000008  -0.0000015   0.0000056
  120   0.0000007   0.0000010   0.0000009  -0.0000071   0.0000090  -0.0000022
  121  -0.0000042   0.0000024  -0.0000089   0.0000182  -0.0000651  -0.0000290
  122  -0.0000046   0.0000020  -0.0000091   0.0000205  -0.0000709  -0.0000334
  123   0.0000003  -0.0000000   0.0000020  -0.0000038   0.0000259   0.0000148
  124   0.0000173   0.0000412   0.0000042   0.0002060   0.0000824   0.0000049
  125   0.0000194   0.0000337  -0.0000007   0.0001955   0.0001240   0.0000202
  126   0.0000189   0.0000387   0.0000054   0.0002835   0.0001547  -0.0000035
  127   0.0000005  -0.0000045   0.0000111  -0.0000221   0.0000523   0.0000064
  128   0.0000001  -0.0000056   0.0000096  -0.0000313   0.0000406   0.0000255
  129   0.0000009  -0.0000040   0.0000063  -0.0000370   0.0000887   0.0000717
  130  -0.0000007  -0.0000050   0.0000018  -0.0000101   0.0000508   0.0000695
  131  -0.0000004   0.0000011   0.0000008   0.0000057   0.0000049   0.0000020
  132  -0.0000010  -0.0000030  -0.0000009  -0.0000206   0.0000431   0.0000521
  133  -0.0000035  -0.0000021   0.0000124   0.0000103   0.0000401  -0.0000110
  134   0.0000022   0.0000010  -0.0000074  -0.0000081  -0.0000235   0.0000075
  135   0.0000019   0.0000009  -0.0000078  -0.0000099  -0.0000242   0.0000118
  136   0.0000001   0.0000006  -0.0000003   0.0000021   0.0000002  -0.0000010
  137   0.0000000   0.0000001  -0.0000001   0.0000003  -0.0000001  -0.0000002
  138  -0.0000001  -0.0000004   0.0000002  -0.0000013  -0.0000001   0.0000006
  139   0.0000000   0.0000002  -0.0000001   0.0000007   0.0000002  -0.0000002
  140  -0.0000001  -0.0000002   0.0000001  -0.0000006  -0.0000001   0.0000002
  141  -0.0000000  -0.0000001   0.0000000  -0.0000005  -0.0000001   0.0000002
  142  -0.0000000   0.0000000  -0.0000000  -0.0000000  -0.0000000  -0.0000000
  143  -0.0000000  -0.0000000   0.0000000  -0.0000000  -0.0000000  -0.0000000
  144  -0.0000000  -0.0000000   0.0000000   0.0000000   0.0000001   0.0000000
  145   0.0000116   0.0000007   0.0000185   0.0000219   0.0000265   0.0000193
  146  -0.0000070  -0.0000005  -0.0000117  -0.0000087  -0.0000108  -0.0000106
  147  -0.0000079  -0.0000007  -0.0000120  -0.0000131  -0.0000144  -0.0000087
  148  -0.0000000   0.0000000   0.0000000  -0.0000000  -0.0000000  -0.0000000
  149   0.0000000   0.0000000   0.0000000  -0.0000000   0.0000000   0.0000000
  150  -0.0000000  -0.0000000  -0.0000000  -0.0000000  -0.0000000   0.0000000
  151   0.0000000  -0.0000000  -0.0000000  -0.0000000   0.0000000   0.0000000
  152   0.0000000  -0.0000000   0.0000000   0.0000000   0.0000000   0.0000000
  153   0.0000000   0.0000000  -0.0000000   0.0000000   0.0000000   0.0000000
  154   0.0000022  -0.0000035   0.0000086  -0.0000585  -0.0000987  -0.0000682
  155  -0.0000014   0.0000017  -0.0000051   0.0000336   0.0000576   0.0000399
  156  -0.0000023   0.0000011  -0.0000065   0.0000364   0.0000662   0.0000473
  157   0.0000000  -0.0000000   0.0000000  -0.0000000  -0.0000000   0.0000000
  158  -0.0000000  -0.0000000   0.0000000  -0.0000000  -0.0000000  -0.0000000
  159  -0.0000000  -0.0000000   0.0000000  -0.0000000  -0.0000000  -0.0000000
  160   0.0000000   0.0000000  -0.0000000   0.0000000   0.0000000   0.0000000
  161  -0.0000000  -0.0000000  -0.0000000  -0.0000000  -0.0000000  -0.0000000
  162   0.0000000   0.0000000   0.0000000  -0.0000000  -0.0000000  -0.0000000
  163   0.0000000   0.0000009  -0.0000017  -0.0000164  -0.0000055  -0.0000024
  164  -0.0000000  -0.0000004   0.0000009   0.0000107   0.0000038   0.0000027
  165  -0.0000001  -0.0000008   0.0000011   0.0000113   0.0000050   0.0000020
  166   0.0000004   0.0000007  -0.0000001  -0.0000002   0.0000053   0.0000041
  167  -0.0000002  -0.0000004  -0.0000001   0.0000002  -0.0000031  -0.0000026
  168  -0.0000003  -0.0000005   0.0000002  -0.0000002  -0.0000037  -0.0000027
           13          14          15          16          17          18
    1   0.0002056   0.0002203   0.0000327   0.0001209  -0.0000017   0.0001004
    2  -0.0000010   0.0000655   0.0000608  -0.0000446   0.0000060  -0.0000141
    3  -0.0000059  -0.0000811  -0.0000108  -0.0000431   0.0000044  -0.0000202
    4  -0.0000210  -0.0000286  -0.0000229   0.0000005   0.0000030   0.0000056
    5   0.0000196  -0.0000237  -0.0000094   0.0000151  -0.0000080  -0.0000066
    6   0.0000039  -0.0000097  -0.0000049   0.0000062  -0.0000043  -0.0000021
    7   0.0000542   0.0000463   0.0000197  -0.0000060  -0.0000022  -0.0000098
    8   0.0001195   0.0001154   0.0000504  -0.0000165  -0.0000097  -0.0000339
    9  -0.0000041  -0.0000107  -0.0000147   0.0000018   0.0000014   0.0000062
   10   0.0007701   0.0001307   0.0000008   0.0000305  -0.0000514  -0.0001170
   11   0.0002121   0.0004443   0.0002269  -0.0000374   0.0000326   0.0000119
   12   0.0002048   0.0003224   0.0002320   0.0000036   0.0000046   0.0000081
   13  -0.0228007  -0.0114113  -0.0036683  -0.0008035   0.0009440   0.0013959
   14  -0.0114113  -0.0099021  -0.0040036  -0.0000673   0.0005083   0.0010848
   15  -0.0036683  -0.0040036  -0.0028306  -0.0000401   0.0004698   0.0012035
   16  -0.0008035  -0.0000673  -0.0000401  -0.0005351   0.0002822   0.0003727
   17   0.0009440   0.0005083   0.0004698   0.0002822  -0.0003330  -0.0005871
   18   0.0013959   0.0010848   0.0012035   0.0003727  -0.0005871  -0.0012569
   19   0.0007682   0.0009621   0.0005759   0.0000014  -0.0000964  -0.0002068
   20   0.0017634   0.0020077   0.0011656   0.0000038  -0.0001837  -0.0003972
   21   0.0001464  -0.0000887  -0.0000920   0.0000405  -0.0000311  -0.0000601
   22   0.0013926   0.0003228   0.0006409   0.0000803  -0.0001756  -0.0003395
   23  -0.0007022  -0.0012875  -0.0006492   0.0000560   0.0000725   0.0002244
   24  -0.0009186  -0.0008958  -0.0006975  -0.0000159   0.0001524   0.0003578
   25  -0.0013257  -0.0052083  -0.0035641   0.0016389  -0.0004841   0.0002843
   26  -0.0005351   0.0036059   0.0042260   0.0008071  -0.0017416  -0.0041202
   27   0.0001067   0.0041298   0.0043476   0.0001507  -0.0012240  -0.0032562
   28   0.0160106   0.0094011   0.0022164  -0.0007016   0.0004637   0.0009500
   29   0.0116915   0.0099393   0.0024679  -0.0009411   0.0006543   0.0011974
   30   0.0122680   0.0074873   0.0022224  -0.0004553   0.0003480   0.0007578
   31  -0.0072937  -0.0005934   0.0006725  -0.0011538   0.0003756  -0.0007153
   32   0.0022447  -0.0021341  -0.0013212   0.0004941   0.0002540   0.0010341
   33  -0.0007999  -0.0034545  -0.0015461   0.0007801  -0.0001099   0.0005390
   34  -0.0000875  -0.0001286  -0.0000977   0.0000070   0.0000070   0.0000224
   35  -0.0000079  -0.0000176  -0.0000122   0.0000018  -0.0000004   0.0000004
   36   0.0000362   0.0000847   0.0000510  -0.0000002   0.0000060   0.0000079
   37  -0.0067612  -0.0071773   0.0010765   0.0002158  -0.0008073  -0.0018216
   38   0.0048245   0.0052797   0.0001539  -0.0002658   0.0003758   0.0010285
   39   0.0044676   0.0044150  -0.0009205  -0.0001131   0.0006189   0.0012431
   40  -0.0000177  -0.0000033  -0.0000042  -0.0000002   0.0000046   0.0000064
   41   0.0000001   0.0000014  -0.0000004  -0.0000047   0.0000022   0.0000036
   42   0.0000078  -0.0000054  -0.0000002   0.0000022  -0.0000048  -0.0000081
   43   0.0000076   0.0000017   0.0000032  -0.0000010  -0.0000016  -0.0000021
   44   0.0000152   0.0000091   0.0000012   0.0000022   0.0000002   0.0000008
   45  -0.0000142  -0.0000078  -0.0000029  -0.0000014   0.0000010   0.0000016
   46  -0.0000019  -0.0000009  -0.0000006  -0.0000004   0.0000005   0.0000007
   47  -0.0000005  -0.0000004   0.0000012   0.0000030  -0.0000016  -0.0000030
   48  -0.0000004   0.0000009  -0.0000019  -0.0000030   0.0000023   0.0000046
   49  -0.0000006  -0.0000006  -0.0000001   0.0000003  -0.0000003  -0.0000004
   50  -0.0000107  -0.0000045  -0.0000015  -0.0000007   0.0000008   0.0000010
   51   0.0000085   0.0000037   0.0000011   0.0000009  -0.0000007  -0.0000010
   52   0.0116006   0.0109565   0.0019057   0.0006839  -0.0002113   0.0003976
   53  -0.0073663  -0.0062062  -0.0009890  -0.0004230   0.0000785  -0.0001603
   54  -0.0081481  -0.0065898  -0.0009054  -0.0004906   0.0000470  -0.0001791
   55   0.0000009   0.0000001  -0.0000003  -0.0000005   0.0000003   0.0000005
   56   0.0000003   0.0000005   0.0000001  -0.0000007   0.0000003   0.0000006
   57  -0.0000020  -0.0000012   0.0000001   0.0000008  -0.0000004  -0.0000009
   58  -0.0000000   0.0000000  -0.0000001  -0.0000001   0.0000001   0.0000002
   59  -0.0000015  -0.0000001  -0.0000002   0.0000001   0.0000002   0.0000003
   60   0.0000014   0.0000011   0.0000011  -0.0000001  -0.0000003  -0.0000006
   61   0.0000004  -0.0000000  -0.0000000  -0.0000000  -0.0000001  -0.0000001
   62  -0.0000001  -0.0000003  -0.0000002   0.0000003  -0.0000001  -0.0000001
   63  -0.0000002   0.0000002   0.0000002  -0.0000002   0.0000001   0.0000001
   64   0.0007783   0.0013422   0.0005840  -0.0000507  -0.0000538  -0.0002032
   65  -0.0003218  -0.0008108  -0.0003474   0.0000070   0.0000474   0.0000966
   66  -0.0009740  -0.0011872  -0.0004570   0.0000059   0.0000554   0.0001435
   67  -0.0000006  -0.0000004  -0.0000000   0.0000003  -0.0000002  -0.0000003
   68   0.0000009  -0.0000003  -0.0000003  -0.0000002  -0.0000000  -0.0000001
   69   0.0000004   0.0000007   0.0000001  -0.0000000   0.0000002   0.0000004
   70   0.0000003   0.0000001   0.0000000  -0.0000002   0.0000001   0.0000002
   71  -0.0000002   0.0000001   0.0000001  -0.0000001   0.0000001   0.0000000
   72   0.0000007  -0.0000001  -0.0000002  -0.0000000  -0.0000000   0.0000000
   73  -0.0009121  -0.0001362   0.0005218  -0.0000827  -0.0000450  -0.0003136
   74  -0.0000410  -0.0006403  -0.0006497   0.0000786   0.0000853   0.0002866
   75   0.0004413  -0.0002790  -0.0004606   0.0000741   0.0000217   0.0002184
   76  -0.0013117  -0.0016189  -0.0007911  -0.0000958   0.0001573   0.0002866
   77   0.0003675   0.0005100   0.0003860   0.0000536  -0.0000457  -0.0002425
   78   0.0010233   0.0012842   0.0005867   0.0000543  -0.0000869  -0.0002127
   79   0.0002003   0.0003576   0.0001120  -0.0000324  -0.0000269   0.0000330
   80  -0.0000439  -0.0000238  -0.0000520   0.0000231  -0.0000210   0.0000356
   81  -0.0001314  -0.0000293  -0.0000825   0.0000214  -0.0000313   0.0000513
   82   0.0001314  -0.0000282  -0.0000153   0.0000203   0.0000125  -0.0000172
   83  -0.0000764  -0.0000181   0.0000205  -0.0000117   0.0000048  -0.0000100
   84  -0.0001275  -0.0001520   0.0000222  -0.0000110   0.0000302  -0.0000469
   85  -0.0000016  -0.0000001  -0.0000010  -0.0000020   0.0000011  -0.0000030
   86  -0.0000115  -0.0000072   0.0000008   0.0000005   0.0000001  -0.0000015
   87  -0.0000131   0.0000020   0.0000006  -0.0000020   0.0000014  -0.0000028
   88  -0.0000040  -0.0000011  -0.0000011  -0.0000007   0.0000009   0.0000012
   89  -0.0000109  -0.0000011  -0.0000026  -0.0000025   0.0000022   0.0000030
   90   0.0000043   0.0000015   0.0000017   0.0000006  -0.0000008  -0.0000011
   91  -0.0000021  -0.0000040  -0.0000002   0.0000017  -0.0000015  -0.0000017
   92   0.0000017   0.0000022  -0.0000012  -0.0000018   0.0000013   0.0000021
   93   0.0000023   0.0000043  -0.0000010  -0.0000021   0.0000021   0.0000031
   94  -0.0000192  -0.0000168  -0.0000063   0.0000020   0.0000008   0.0000030
   95  -0.0000204  -0.0000166  -0.0000091   0.0000019   0.0000012   0.0000043
   96   0.0000046  -0.0000015   0.0000009  -0.0000009   0.0000007  -0.0000005
   97  -0.0000044  -0.0000032  -0.0000015   0.0000001   0.0000001   0.0000004
   98   0.0000004  -0.0000020  -0.0000014   0.0000001  -0.0000000   0.0000002
   99  -0.0000114  -0.0000085  -0.0000057   0.0000017   0.0000006   0.0000023
  100  -0.0000397  -0.0000320  -0.0000068  -0.0000014   0.0000020   0.0000038
  101   0.0001178   0.0000115   0.0000211   0.0000110  -0.0000128  -0.0000188
  102  -0.0000125   0.0000240   0.0000047  -0.0000048   0.0000017   0.0000045
  103   0.0120615   0.0040397   0.0004745   0.0005419  -0.0003863  -0.0003001
  104   0.0016404   0.0006209  -0.0000324   0.0000693  -0.0000507  -0.0000096
  105  -0.0032791  -0.0011597  -0.0001043  -0.0001594   0.0001218   0.0000942
  106   0.0001558  -0.0000145  -0.0000089   0.0001460  -0.0000806  -0.0000934
  107  -0.0000467  -0.0000186  -0.0000077  -0.0000149   0.0000225   0.0000245
  108  -0.0000370   0.0000174   0.0000123  -0.0000528   0.0000233   0.0000289
  109  -0.0000639  -0.0000222  -0.0000061   0.0000069   0.0000092  -0.0000003
  110  -0.0000044   0.0000009   0.0000017   0.0000057   0.0000004  -0.0000032
  111   0.0000483   0.0000001  -0.0000141   0.0000022  -0.0000030   0.0000177
  112   0.0000021   0.0000000  -0.0000044  -0.0000005   0.0000005   0.0000002
  113  -0.0001143  -0.0000860  -0.0000450  -0.0000024   0.0000080   0.0000167
  114  -0.0000745  -0.0000595  -0.0000292  -0.0000032   0.0000059   0.0000129
  115  -0.0000681  -0.0001009  -0.0000710   0.0000051   0.0000029   0.0000099
  116  -0.0004093  -0.0004147  -0.0002083   0.0000242   0.0000064   0.0000216
  117   0.0004261   0.0004141   0.0001874  -0.0000243  -0.0000033  -0.0000135
  118  -0.0000127   0.0000135  -0.0000208  -0.0000018   0.0000084   0.0000166
  119  -0.0000136   0.0000019  -0.0000159  -0.0000028   0.0000064   0.0000124
  120   0.0000040  -0.0000531   0.0000194   0.0000067  -0.0000142  -0.0000258
  121  -0.0001810   0.0001016  -0.0000157  -0.0000469   0.0000444   0.0000692
  122  -0.0001597   0.0001328  -0.0000177  -0.0000570   0.0000535   0.0000827
  123   0.0000414  -0.0000385   0.0000116   0.0000168  -0.0000172  -0.0000274
  124  -0.0008997  -0.0007513  -0.0006010  -0.0000150   0.0001318   0.0003180
  125  -0.0018227  -0.0011496  -0.0007863   0.0000072   0.0001433   0.0003869
  126  -0.0014479  -0.0010500  -0.0007058   0.0000046   0.0001419   0.0003463
  127  -0.0003987  -0.0001384   0.0000594  -0.0000110  -0.0000044  -0.0000234
  128  -0.0006745  -0.0003660  -0.0000051  -0.0000161   0.0000048  -0.0000371
  129  -0.0006213  -0.0001594   0.0000848  -0.0000601  -0.0000003  -0.0000251
  130  -0.0010136  -0.0002358  -0.0000452  -0.0000314   0.0000324   0.0000134
  131  -0.0001923  -0.0002254  -0.0000179   0.0000038   0.0000043   0.0000124
  132  -0.0004066  -0.0000544  -0.0000325  -0.0000124   0.0000201   0.0000085
  133  -0.0001925  -0.0001602   0.0000126   0.0000180   0.0000057  -0.0000330
  134   0.0001051   0.0000921  -0.0000104  -0.0000105  -0.0000049   0.0000167
  135   0.0000976   0.0000925  -0.0000058  -0.0000139  -0.0000061   0.0000145
  136   0.0000065   0.0000080   0.0000058   0.0000031  -0.0000016  -0.0000025
  137   0.0000008   0.0000020   0.0000019   0.0000011  -0.0000005  -0.0000009
  138  -0.0000043  -0.0000050  -0.0000036  -0.0000017   0.0000009   0.0000014
  139   0.0000009   0.0000019   0.0000016  -0.0000000  -0.0000002  -0.0000003
  140  -0.0000002  -0.0000012  -0.0000009  -0.0000003   0.0000002   0.0000000
  141  -0.0000006  -0.0000018  -0.0000017   0.0000002   0.0000002   0.0000005
  142   0.0000005   0.0000002  -0.0000000  -0.0000001   0.0000000   0.0000001
  143  -0.0000004  -0.0000000   0.0000001   0.0000000  -0.0000000  -0.0000001
  144   0.0000001  -0.0000000   0.0000000   0.0000001  -0.0000001  -0.0000001
  145  -0.0000050  -0.0000081   0.0000069   0.0000057  -0.0000123  -0.0000054
  146   0.0000082   0.0000085  -0.0000038  -0.0000043   0.0000078   0.0000035
  147   0.0000268   0.0000175  -0.0000011  -0.0000038   0.0000076   0.0000028
  148  -0.0000002   0.0000000   0.0000000   0.0000000  -0.0000000   0.0000000
  149   0.0000001   0.0000000   0.0000000  -0.0000000   0.0000000   0.0000000
  150  -0.0000000  -0.0000000   0.0000000  -0.0000000  -0.0000000  -0.0000000
  151   0.0000002  -0.0000000  -0.0000001  -0.0000000   0.0000000   0.0000000
  152   0.0000001  -0.0000000  -0.0000000  -0.0000000   0.0000000   0.0000000
  153   0.0000001   0.0000000  -0.0000000  -0.0000000   0.0000000   0.0000000
  154   0.0004023   0.0002286   0.0000170   0.0000462  -0.0000132   0.0000008
  155  -0.0002354  -0.0001352  -0.0000134  -0.0000273   0.0000083   0.0000010
  156  -0.0002910  -0.0001701  -0.0000244  -0.0000341   0.0000122   0.0000049
  157   0.0000000  -0.0000000  -0.0000000  -0.0000000   0.0000000   0.0000000
  158  -0.0000003  -0.0000000   0.0000001   0.0000000  -0.0000000  -0.0000000
  159  -0.0000001   0.0000000   0.0000000   0.0000000  -0.0000000  -0.0000000
  160   0.0000003  -0.0000000  -0.0000001  -0.0000000   0.0000000   0.0000000
  161  -0.0000001  -0.0000000   0.0000000   0.0000000  -0.0000000  -0.0000000
  162   0.0000000   0.0000000  -0.0000000  -0.0000000   0.0000000   0.0000001
  163  -0.0002134  -0.0001813   0.0000509   0.0000012  -0.0000259  -0.0000674
  164   0.0001026   0.0000941  -0.0000397  -0.0000005   0.0000165   0.0000424
  165   0.0001603   0.0001281  -0.0000309  -0.0000009   0.0000172   0.0000446
  166  -0.0000934  -0.0000619   0.0000042  -0.0000032  -0.0000069  -0.0000159
  167   0.0000567   0.0000395  -0.0000012   0.0000015   0.0000036   0.0000092
  168   0.0000652   0.0000408  -0.0000034   0.0000022   0.0000047   0.0000105
           19          20          21          22          23          24
    1  -0.0000221  -0.0000763   0.0000582   0.0000072  -0.0000019  -0.0000356
    2  -0.0000280  -0.0000404   0.0000022  -0.0000153   0.0000159   0.0000171
    3  -0.0000037   0.0000133  -0.0000274   0.0000039   0.0000070   0.0000143
    4  -0.0000014   0.0000092   0.0000055   0.0000094  -0.0000127  -0.0000177
    5   0.0000038  -0.0000034   0.0000112  -0.0000247  -0.0000185  -0.0000031
    6  -0.0000038  -0.0000174  -0.0000006  -0.0000168   0.0000021   0.0000104
    7   0.0000094   0.0000295  -0.0000027   0.0000143  -0.0000023  -0.0000080
    8   0.0000260   0.0000643  -0.0000400   0.0000362   0.0000024   0.0000040
    9   0.0000115   0.0000217   0.0000134   0.0000131  -0.0000130  -0.0000248
   10   0.0003674   0.0006462  -0.0002122   0.0000999  -0.0000689   0.0000035
   11   0.0003409   0.0004601   0.0001789  -0.0001130   0.0000362  -0.0000213
   12   0.0001303   0.0000747   0.0002485  -0.0002698  -0.0000089  -0.0000108
   13   0.0007682   0.0017634   0.0001464   0.0013926  -0.0007022  -0.0009186
   14   0.0009621   0.0020077  -0.0000887   0.0003228  -0.0012875  -0.0008958
   15   0.0005759   0.0011656  -0.0000920   0.0006409  -0.0006492  -0.0006975
   16   0.0000014   0.0000038   0.0000405   0.0000803   0.0000560  -0.0000159
   17  -0.0000964  -0.0001837  -0.0000311  -0.0001756   0.0000725   0.0001524
   18  -0.0002068  -0.0003972  -0.0000601  -0.0003395   0.0002244   0.0003578
   19  -0.0019527  -0.0033735  -0.0002192  -0.0001630   0.0015231   0.0012015
   20  -0.0033735  -0.0067932   0.0002604  -0.0013676   0.0028467   0.0027656
[...]
   32      H      -0.5027042320     1.4167623105    -2.5340655547
   33      H       0.0533490093     3.0626187809    -2.3782778421
   34      H      -0.2662485502     2.9779273100     0.0596767597
   35      H      -1.3024957703     0.1718201607    -0.3967025460
   36      H       1.1638390983     1.0901493330     1.1191055023
   37      H       0.6147091630    -0.5567276872     0.9629054091
   38      H      -2.1839774934     3.6982501015    -1.2895361225
   39      H      -2.6854448685     2.0459296849    -1.5069948242
   40      H      -2.5780283134     3.6144267154     1.1009062647
   41      H      -4.0319021721     3.1378445244     0.2823151589
   42      H      -3.3729644589     1.8175857196     2.3315579331
   43      H      -1.5188368123     0.1325328503     2.0827385861
   44      H      -1.0332241965     1.8007914679     2.1506619218
   45      H      -3.5377399889    -0.7751115333     2.6513834654
   46      H       3.5421432823     1.3317450328     0.5397899077
   47      H       2.4659327108    -2.0832113435    -1.7755868468
   48      H       4.6821174562    -3.0266856977    -1.4572399864
   49      H      -4.6917898194     1.3297559847    -0.9521619957
   50      H       5.8010956300     1.5026167494     1.4954592182
   51      H       8.0313775252     0.5623708217     1.8210143815
   52      H      -6.1554228948    -0.5203196796    -1.5544112957
   53      H       6.9752536046    -2.8632343131    -0.4919379035
   54      H       8.6227313578    -1.6266402359     0.8255808245
   55      H      -4.9907226423    -2.6262291829     2.0626560868
   56      H      -6.5319699658    -3.6982587771     0.4911390471
 ----------------------------------------------------------------
 Nuclear Repulsion Energy =  2368.8979052115 hartrees
 There are       99 alpha and       99 beta electrons
 Requested basis set is 6-31G(d,p)
 There are 196 shells and 560 basis functions

Total QAlloc Memory Limit  20000 MB
Mega-Array Size      4888 MB
MEM_STATIC part      5000 MB
 A cutoff of  1.0D-12 yielded   9808 shell pairs
 There are     80269 function pairs
 Smallest overlap matrix eigenvalue = 2.65E-04

  Scale SEOQF with 1.000000e-02/1.000000e-01/1.000000e-01

 Standard Electronic Orientation quadrupole field applied
 Nucleus-field energy     =     0.0000000297 hartrees
 Guess MOs from SCF MO coefficient file
Reading MOs from coefficient file
Reading MOs from coefficient file
 A restricted Hartree-Fock SCF calculation will be
 performed using Pulay DIIS extrapolation
 SCF converges when DIIS error is below 1.0E-10
 ---------------------------------------
  Cycle       Energy         DIIS Error
 ---------------------------------------
    1   -1113.6852241372      1.85E-11
    2   -1113.6852241372      2.61E-11 Convergence criterion met
 ---------------------------------------
 SCF time:  CPU 166.95 s  wall 167.17 s
 SCF   energy in the final basis set = -1113.6852241372
 Total energy in the final basis set = -1113.6852241372
 Direct RCIS calculation will be performed
 Triplet excitation energies requested
 CIS energy converged when residual is below 10e-10
 ---------------------------------------------------
 Iter    Rts Conv    Rts Left    Ttl Dev     Max Dev
 ---------------------------------------------------
   1         0           2      0.000172    0.000126
   2         0           2      0.000523    0.000312
   3         0           2      0.000410    0.000292
   4         0           2      0.000180    0.000116
   5         0           2      0.000108    0.000082
   6         0           2      0.000036    0.000028
   7         0           2      0.000012    0.000010
   8         0           2      0.000007    0.000006
   9         0           2      0.000004    0.000003
  10         0           2      0.000002    0.000002
  11         0           2      0.000001    0.000001
  12         0           2      0.000000    0.000000
  13         0           2      0.000000    0.000000
  14         0           2      0.000000    0.000000
  15         0           2      0.000000    0.000000
  16         0           2      0.000000    0.000000
  17         0           2      0.000000    0.000000
  18         0           2      0.000000    0.000000
  19         0           2      0.000000    0.000000
  20         0           2      0.000000    0.000000
  21         2           0      0.000000    0.000000    Roots Converged
 ---------------------------------------------------
 
 
 ---------------------------------------------------
               CIS Excitation Energies              
 ---------------------------------------------------

 Excited state   1: excitation energy (eV) =    2.5192
    Total energy for state   1:  -1113.592645511209
    Multiplicity: Triplet 
    Trans. Mom.:  0.0000 X   0.0000 Y   0.0000 Z
    Strength   :  0.0000
    D( 96) --> V(  4) amplitude =  0.2812
    D( 97) --> V(  1) amplitude =  0.8844

 Excited state   2: excitation energy (eV) =    2.7409
    Total energy for state   2:  -1113.584498598244
    Multiplicity: Triplet 
    Trans. Mom.:  0.0000 X   0.0000 Y   0.0000 Z
    Strength   :  0.0000
    D( 95) --> V(  5) amplitude =  0.3241
    D( 98) --> V(  3) amplitude =  0.3547
    D( 99) --> V(  2) amplitude = -0.8163
 
 ---------------------------------------------------
  Timing summary (seconds)
  CPU time       3133.18s
  System time       0.00s
  Wall time      3137.87s


 Entering the ER Localization Code for CIS excited states. 

NOTE: THIS HAS BEEN ONLY PARTIALLY TESTED FOR THE CASE THAT WE HAVE UNRESTRICTED ORBITALS.
INITIAL CENTER1 LOCATIONS: state 0  Occ x -9.564 y -1.780 z  0.675 Virt x -9.537 y -1.672 z  0.611
INITIAL CENTER1 LOCATIONS: state 1  Occ x  9.857 y -1.390 z  0.047 Virt x  9.835 y -1.425 z  0.019
INITIAL CENTER2 LOCATIONS: state 0  Occ x 97.077 y  8.654 z  4.227 Virt x 96.668 y  9.345 z  4.561
INITIAL CENTER2 LOCATIONS: state 1  Occ x 107.699 y  6.901 z  4.139 Virt x 108.240 y  6.983 z  4.234
INITIAL STANDARD DEVIATIONS: state 0  Occ x  2.368 y  2.342 z  1.942 Virt x  2.390 y  2.559 z  2.046
INITIAL STANDARD DEVIATIONS: state 1  Occ x  3.247 y  2.229 z  2.034 Virt x  3.392 y  2.225 z  2.058
INITIAL : state 0 sum of square of distances to other adiabatic states Occ 377.709067 Virt 375.707812
INITIAL : state 1 sum of square of distances to other adiabatic states Occ 377.709067 Virt 375.707812



Calling Random Orthogonal Matrix...
RandomSeed = 25
location random matrix in checkantisymmetry: max_diff = 0.000000e+00
location random matrix in checkunitary: max_diff = 0.000000e+00
 initially ruedvalue =    1.02263644005025     
showmatrix initial R-Matrix(0,0) =   0.5526731616
showmatrix initial R-Matrix(1,0) =   0.0032978375
showmatrix initial R-Matrix(0,1) =  -0.0040464295
showmatrix initial R-Matrix(1,1) =   0.4699632785
JacSwp  rnd     1 max_diff -9.999000e+03 ruedval     1.0227691796
In RUED_JACOBI SWEEPS for DIABATIC STATES, ending in round     1  because max_diff = 7.589415e-19
showmatrix final R-Matrix(0,0) =   0.5527463061
showmatrix final R-Matrix(1,0) =  -0.0000005735
showmatrix final R-Matrix(0,1) =  -0.0000005735
showmatrix final R-Matrix(1,1) =   0.4700228734
showmatrix final adiabatic -> diabatic RotMatrix(0,0) =   0.9999999690
showmatrix final adiabatic -> diabatic RotMatrix(1,0) =  -0.0002488393
showmatrix final adiabatic -> diabatic RotMatrix(0,1) =   0.0002488393
showmatrix final adiabatic -> diabatic RotMatrix(1,1) =   0.9999999690
location RotMatrix in boys_diabatic_nogs in checkunitary: max_diff = 2.220446e-16
showing H in adiabatic representation: NO coupling elements!!!
showmatrix adiabatH(0,0) =   0.0925786260
showmatrix adiabatH(1,0) =   0.0000000000
showmatrix adiabatH(0,1) =   0.0000000000
showmatrix adiabatH(1,1) =   0.1007255389
getting H in diabatic representation: WITH coupling elements!!!
showmatrix diabatH(0,0) =   0.0925786265
showmatrix diabatH(1,0) =  -0.0000020273
showmatrix diabatH(0,1) =  -0.0000020273
showmatrix diabatH(1,1) =   0.1007255384
FINAL CENTER LOCATIONS Spin Occ : state 0 x -9.564 y -1.780 z  0.675  Virt x -9.537 y -1.672 z  0.611
FINAL CENTER LOCATIONS Spin Occ : state 1 x  9.857 y -1.390 z  0.047  Virt x  9.835 y -1.425 z  0.019
FINAL CENTER2 LOCATIONS: state 0  Occ x 97.077 y  8.654 z  4.227 Virt x 96.668 y  9.345 z  4.561
FINAL CENTER2 LOCATIONS: state 1  Occ x 107.699 y  6.901 z  4.139 Virt x 108.240 y  6.983 z  4.234
FINAL STANDARD DEVIATIONS: state 0  Occ x  2.368 y  2.342 z  1.942 Virt x  2.390 y  2.559 z  2.046
FINAL STANDARD DEVIATIONS: state 1  Occ x  3.247 y  2.229 z  2.034 Virt x  3.392 y  2.225 z  2.058
FINAL: state 0 sum of square of distances to other Centers Occ 377.709158 Virt 375.707901 
FINAL: state 1 sum of square of distances to other Centers Occ 377.709158 Virt 375.707901 



Calculating ER second derivative! Everything should be negative. If so, we are done.
location hessian --max_diff from checksymmetry = 0.000000e+00
eval of hessian: count 0 eval -3.251835
 STSman time:  CPU 0.00 s  wall 0.00 s

 Analysis of SCF Wavefunction
 
 --------------------------------------------------------------
                    Orbital Energies (a.u.)
 --------------------------------------------------------------
 
 Alpha MOs
 -- Occupied --
-20.548 -11.322 -11.273 -11.256 -11.255 -11.246 -11.245 -11.243
-11.240 -11.238 -11.235 -11.235 -11.231 -11.231 -11.231 -11.231
-11.230 -11.229 -11.228 -11.227 -11.226 -11.226 -11.224 -11.224
-11.221 -11.219 -11.219 -11.218  -1.378  -1.177  -1.164  -1.145
 -1.119  -1.091  -1.055  -1.042  -1.038  -1.027  -1.015  -0.991
 -0.980  -0.963  -0.899  -0.873  -0.850  -0.841  -0.829  -0.819
 -0.813  -0.803  -0.784  -0.763  -0.757  -0.702  -0.699  -0.695
 -0.667  -0.662  -0.647  -0.637  -0.635  -0.623  -0.620  -0.615
 -0.607  -0.601  -0.597  -0.592  -0.584  -0.581  -0.573  -0.566
 -0.561  -0.541  -0.541  -0.533  -0.524  -0.522  -0.513  -0.506
 -0.505  -0.494  -0.486  -0.482  -0.479  -0.473  -0.472  -0.466
 -0.456  -0.451  -0.436  -0.416  -0.415  -0.412  -0.377  -0.355
 -0.315  -0.310  -0.284
 -- Virtual --
  0.070   0.101   0.133   0.140   0.189   0.208   0.223   0.229
  0.234   0.243   0.248   0.254   0.256   0.262   0.273   0.281
  0.286   0.288   0.293   0.303   0.313   0.315   0.317   0.322
  0.325   0.326   0.331   0.332   0.338   0.342   0.347   0.351
  0.358   0.365   0.369   0.388   0.392   0.396   0.401   0.408
  0.411   0.417   0.433   0.435   0.441   0.445   0.458   0.460
  0.465   0.474   0.485   0.491   0.496   0.499   0.510   0.520
  0.529   0.534   0.537   0.553   0.574   0.585   0.604   0.670
  0.685   0.698   0.704   0.710   0.717   0.724   0.728   0.733
  0.734   0.741   0.744   0.746   0.754   0.756   0.761   0.765
  0.767   0.782   0.787   0.794   0.797   0.798   0.811   0.813
  0.816   0.821   0.825   0.834   0.838   0.847   0.849   0.860
  0.865   0.866   0.870   0.878   0.884   0.897   0.907   0.912
  0.920   0.927   0.936   0.943   0.948   0.960   0.963   0.974
  0.976   0.981   0.994   0.996   1.007   1.010   1.020   1.030
  1.035   1.044   1.056   1.065   1.068   1.071   1.073   1.074
  1.079   1.085   1.087   1.091   1.094   1.100   1.103   1.107
  1.111   1.113   1.122   1.130   1.131   1.134   1.137   1.145
  1.154   1.167   1.171   1.173   1.186   1.189   1.191   1.198
  1.199   1.210   1.213   1.217   1.220   1.223   1.228   1.234
  1.241   1.248   1.252   1.257   1.269   1.279   1.289   1.301
  1.307   1.318   1.340   1.346   1.357   1.364   1.380   1.387
  1.406   1.415   1.424   1.441   1.445   1.450   1.466   1.477
  1.492   1.505   1.508   1.519   1.528   1.534   1.541   1.553
  1.570   1.598   1.604   1.617   1.629   1.642   1.647   1.652
  1.659   1.662   1.673   1.684   1.692   1.697   1.698   1.705
  1.715   1.719   1.736   1.755   1.764   1.771   1.775   1.796
  1.808   1.816   1.824   1.834   1.845   1.863   1.911   1.921
  1.959   1.968   1.984   2.007   2.021   2.033   2.043   2.046
  2.050   2.051   2.058   2.081   2.095   2.098   2.110   2.111
  2.119   2.132   2.138   2.144   2.156   2.159   2.170   2.173
  2.177   2.180   2.189   2.191   2.194   2.205   2.209   2.221
  2.226   2.233   2.235   2.239   2.245   2.250   2.256   2.260
  2.268   2.274   2.280   2.288   2.302   2.304   2.307   2.323
  2.338   2.340   2.359   2.362   2.374   2.381   2.392   2.400
  2.407   2.423   2.434   2.438   2.440   2.447   2.449   2.465
  2.470   2.478   2.498   2.506   2.516   2.520   2.528   2.544
  2.547   2.552   2.558   2.577   2.589   2.591   2.597   2.612
  2.616   2.617   2.630   2.634   2.653   2.659   2.671   2.676
  2.685   2.690   2.694   2.704   2.712   2.716   2.723   2.725
  2.735   2.742   2.745   2.748   2.767   2.771   2.774   2.782
  2.787   2.793   2.803   2.816   2.828   2.829   2.837   2.854
  2.856   2.864   2.876   2.891   2.894   2.899   2.904   2.916
  2.925   2.929   2.934   2.944   2.950   2.953   2.957   2.965
  2.971   2.974   2.979   2.982   2.993   3.015   3.020   3.036
  3.044   3.056   3.059   3.073   3.082   3.088   3.093   3.106
  3.115   3.126   3.137   3.151   3.160   3.175   3.178   3.190
  3.193   3.204   3.212   3.220   3.233   3.235   3.239   3.250
  3.260   3.278   3.294   3.304   3.307   3.324   3.350   3.353
  3.364   3.381   3.404   3.413   3.426   3.450   3.479   3.530
  3.541   3.553   3.603   3.632   3.633   3.642   3.650   3.662
  3.676   3.693   3.708   3.723   3.728   3.734   3.739   3.774
  3.793   3.804   3.817   3.826   3.868   3.877   3.887   3.891
  3.901   3.920   3.928   3.934   3.971   3.992   4.172   4.193
  4.317   4.366   4.527   4.548   4.572   4.576   4.586   4.599
  4.605   4.658   4.723   4.742   4.771   4.829   4.838   4.853
  4.884   4.908   4.921   4.939   4.992   5.097   5.150   5.185
  5.235   5.268   5.291   5.307   5.383
 --------------------------------------------------------------
 
          Ground-State Mulliken Net Atomic Charges

     Atom                 Charge (a.u.)
  ----------------------------------------
      1 C                    -0.154757
      2 C                    -0.197472
      3 C                    -0.209975
      4 C                    -0.120029
      5 C                    -0.130970
      6 C                    -0.181638
      7 C                    -0.204619
      8 C                    -0.230163
      9 C                    -0.155144
     10 C                    -0.197180
     11 C                     0.029000
     12 C                    -0.001275
     13 C                    -0.165960
     14 C                    -0.136011
     15 C                    -0.168190
     16 C                    -0.029718
     17 C                    -0.124774
     18 C                    -0.168963
     19 C                    -0.040449
     20 C                    -0.127246
     21 C                    -0.158107
     22 C                    -0.089216
     23 C                    -0.124186
     24 C                    -0.160884
     25 C                    -0.110804
     26 C                    -0.179877
     27 C                     0.396622
     28 O                    -0.538562
     29 H                     0.120383
     30 H                     0.123232
     31 H                     0.106305
     32 H                     0.108161
     33 H                     0.114576
     34 H                     0.102665
     35 H                     0.117568
     36 H                     0.103907
     37 H                     0.121419
     38 H                     0.116179
     39 H                     0.110463
     40 H                     0.118798
     41 H                     0.122343
     42 H                     0.143430
     43 H                     0.117748
     44 H                     0.112755
     45 H                     0.149728
     46 H                     0.146115
     47 H                     0.147825
     48 H                     0.152635
     49 H                     0.156527
     50 H                     0.149118
     51 H                     0.149604
     52 H                     0.197198
     53 H                     0.151340
     54 H                     0.149709
     55 H                     0.163978
     56 H                     0.106840
  ----------------------------------------
  Sum of atomic charges =     0.000000

 -----------------------------------------------------------------
                    Cartesian Multipole Moments
 -----------------------------------------------------------------
    Charge (ESU x 10^10)
                 0.0000
    Dipole Moment (Debye)
         X       2.7149      Y       2.0095      Z       2.5518
       Tot       4.2333
    Quadrupole Moments (Debye-Ang)
        XX    -197.1681     XY     -14.7911     YY    -161.4392
        XZ     -12.7364     YZ      -4.0508     ZZ    -166.8417
    Octopole Moments (Debye-Ang^2)
       XXX     360.1733    XXY      82.3648    XYY      32.8879
       YYY      -8.8588    XXZ     137.2583    XYZ      85.1727
       YYZ      18.8386    XZZ     -13.4899    YZZ       5.1918
       ZZZ       3.1457
    Hexadecapole Moments (Debye-Ang^3)
      XXXX  -21655.2637   XXXY   -1064.3009   XXYY   -3895.4359
      XYYY     -38.2016   YYYY   -2853.7077   XXXZ    -380.3820
      XXYZ    -304.7938   XYYZ    -209.3427   YYYZ     -34.2705
      XXZZ   -3685.2919   XYZZ       3.0495   YYZZ    -703.6762
      XZZZ     -10.5665   YZZZ       0.9629   ZZZZ   -1308.3486
 -----------------------------------------------------------------
Archival summary:
1\1\fermi.chem.uh.edu\SP\HF\6-31G**\12728\xunmo\SatMar107:08:122014SatMar107:08:122014\0\\#,HF,6-31G**,\\0,1\C\H,1,1.09157\C,1,1.53158,2,108.125\H,3,1.08604,1,109.641,2,-64.0987,0\H,3,1.08932,1,108.76,2,-179.744,0\C,1,1.53285,2,107.85,3,-120.607,0\H,6,1.08723,1,109.891,2,59.5849,0\H,6,1.08893,1,109.234,2,176.014,0\C,1,1.53651,2,107.702,3,119.399,0\H,9,1.09292,1,107.391,2,-179.008,0\C,9,1.53087,1,110.475,2,-61.4834,0\H,11,1.08682,9,108.551,1,68.4872,0\H,11,1.08769,9,109.771,1,-175.68,0\C,9,1.53146,1,110.984,2,63.4648,0\H,14,1.08765,9,109.832,1,177.278,0\H,14,1.08978,9,109.168,1,-66.3465,0\C,14,1.52997,9,112.079,1,54.9511,0\H,17,1.08642,14,110.211,9,-177.483,0\H,17,1.08808,14,109.352,9,65.7571,0\C,11,1.53374,9,112.297,1,-54.1919,0\H,20,1.0861,11,110.508,9,177.979,0\H,20,1.08801,11,108.104,9,-66.5479,0\C,17,1.53759,14,111.445,9,-55.4899,0\H,23,1.08873,17,106.962,14,-61.2297,0\C,23,1.52136,17,112.701,14,-178.541,0\C,25,1.36409,23,122.29,17,-62.177,0\H,26,1.07655,25,120.288,23,0.0629343,0\C,26,1.41859,25,121.877,23,-179.948,0\C,28,1.40791,26,119.245,25,0.00642246,0\C,29,1.41747,28,118.389,26,-0.00707111,0\H,30,1.07654,29,119.022,28,-179.978,0\C,30,1.35827,29,120.84,28,0.00445368,0\H,32,1.07637,30,119.547,29,-179.98,0\C,29,1.42067,28,119.185,26,-180,0\H,34,1.07647,29,118.873,28,179.99,0\C,34,1.35752,29,120.709,28,-0.00211424,0\H,36,1.07566,34,120.3,29,179.994,0\C,36,1.41717,34,120.174,29,0.00387867,0\H,38,1.07579,36,119.46,34,179.987,0\C,38,1.35757,36,120.358,34,-0.00167091,0\H,40,1.07644,38,120.34,36,179.983,0\C,20,1.5394,11,114.203,9,52.659,0\H,42,1.09192,20,106.694,11,-165.045,0\C,42,1.51848,20,115.669,11,77.7479,0\C,44,1.42324,42,125.676,20,-2.63995,0\H,45,1.0728,44,119.471,42,-1.50083,0\C,45,1.36323,44,122.403,42,178.316,0\H,47,1.07164,45,121.846,44,179.721,0\C,47,1.4678,45,120.101,44,-0.560976,0\C,49,1.43855,47,118.293,45,-2.20765,0\H,50,1.0758,49,119.264,47,-177.289,0\C,50,1.35306,49,120.07,47,2.28106,0\H,52,1.07541,50,119.159,49,-178.798,0\C,49,1.43992,47,120.509,45,178.655,0\H,54,1.09188,49,116.394,47,179.653,0\O,54,1.21073,49,123.203,47,-0.344497,0\\HF=-1113.68522\\@

 Total job time:  3698.97s(wall), 3693.56s(cpu) 
 Sat Mar  1 07:08:12 2014

        *************************************************************
        *                                                           *
        *  Thank you very much for using Q-Chem.  Have a nice day.  *
        *                                                           *
        *************************************************************


0 sent ACK to 0 
now end server 0 ... 
cleanup process ... done
