
Running Job 1 of 4 INP/d27ea
qchem INP/d27ea_36371.0 /home/qchem_scratch/qchem36371/ 1
/home/QCHEM/bin/mpi/mpirun_qchem -machinefile /home/QCHEM/bin/mpi/machines -np 1 /home/QCHEM/exe/qcprog.exe INP/d27ea_36371.0 /home/qchem_scratch/qchem36371/

Process 0 of 1 is on fermi.chem.uh.edu - thread support 0
initial socket setup ...start
initial socket setup ...done 
now start server 0 ... 
                  Welcome to Q-Chem
     A Quantum Leap Into The Future Of Chemistry

 Y. Shao, L. Fusti-Molnar, Y. Jung, J. Kussmann, C. Ochsenfeld, S. T. Brown, 
 A. T. B. Gilbert, L. V. Slipchenko, S. V. Levchenko, D. P. O'Neill, 
 R. A. DiStasio Jr., R. C. Lochan, T. Wang, G. J. O. Beran, N. A. Besley, 
 J. M. Herbert, C. Y. Lin, T. Van Voorhis, S. H. Chien, A. Sodt, R. P. Steele, 
 V. A. Rassolov, P. E. Maslen, P. P. Korambath, R. D. Adamson, B. Austin, 
 J. Baker, E. F. C. Byrd, H. Dachsel, R. J. Doerksen, A. Dreuw, B. D. Dunietz, 
 A. D. Dutoi, T. R. Furlani, S. R. Gwaltney, A. Heyden, S. Hirata, C.-P. Hsu, 
 G. Kedziora, R. Z. Khaliullin, P. Klunzinger, A. M. Lee, M. S. Lee, W. Liang, 
 I. Lotan, N. Nair, B. Peters, E. I. Proynov, P. A. Pieniazek, Y. M. Rhee, 
 J. Ritchie, E. Rosta, C. D. Sherrill, A. C. Simmonett, J. E. Subotnik, 
 H. L. Woodcock III, W. Zhang, A. T. Bell, A. K. Chakraborty, D. M. Chipman, 
 F. J. Keil, A. Warshel, W. J. Hehre, H. F. Schaefer III, J. Kong, 
 A. I. Krylov, P. M. W. Gill, M. Head-Gordon

 Additional authors for Version 3.1: 
 Z. Gan, Y. Zhao, N. E. Schultz, D. Truhlar, E. Epifanovsky, M. Oana

 Additional authors for Version 3.2: 
 R. Baer, B. R. Brooks, D. Casanova, J.-D. Chai, C.-L. Cheng, C. Cramer, 
 D. Crittenden, A. Ghysels, G. Hawkins, E. G. Hohenstein, C. Kelley, 
 W. Kurlancheek, D. Liotard, E. Livshits, P. Manohar, A. Marenich, 
 D. Neuhauser, R. Olson, M. A. Rohrdanz, K. S. Thanthiriwatte, A. J. W. Thom, 
 V. Vanovschi, C. F. Williams, Q. Wu, Z.-Q. You

 Additional authors for Version 4.0: 
 A. Aspuru-Guzik, Y. Bernard, C. Chang, J. Deng, A. Dreuw, M. Diedenhofen, 
 R. G. Edgar, D. Ghosh, W. A. Goddard III, M. Goldey, L. D. Jacobson, 
 M. Gordon, B. Kaduk, I. Kaliman, K. Khistyaev, R. King, A. Klamt, 
 D. Kosenkov, T. Kus, D. Lambrecht, A. Landau, A. W. Lange, K. Lawler, F. Liu, 
 J. Liu, R. Olivares-Amaya, S. P. Mao, J. Parkhill, N. Russ, M. Schmidt, 
 N. Shenvi, D. Small, Y. C. Su, E. Sundstrom, L. Vogt, O. Vydrov, M. Watson, 
 M. Wormit, X. Xu, S. Yeganeh, I. Y. Zhang, D. Zuev

 Additional authors for Version 4.1: 
 X. Feng, M. W. D. Hanson-Heine, P. Horn, H. Ji, A. Laurent, R. Peverati, 
 N. Mardirossian, N. Sergueev, S. Sharada, P. Zimmerman

 Q-Chem, Version 4.1, Q-Chem, Inc., Pittsburgh, PA (2013).

 Parts of Q-Chem use Armadillo 3.6.2 (Piazza del Duomo).
 http://arma.sourceforge.net/

 Intel X86 Linux Version 4.1.2

 Q-chem begins on Fri Feb 28 08:30:07 2014  

Host: 
0

     Scratch files written to /home/qchem_scratch/qchem36371//
 Feb414 28838_zgan 2267   
 Parallel job on  1  processors
Processing $rem in /home/QCHEM/config/preferences.
 MEM_TOTAL  2000 
Finally everything over in PARseQInput

--------------------------------------------------------------
User input:
--------------------------------------------------------------
$comment
C1,3ea
$end
$molecule
0 1
C        -2.1368075154   -1.4328504006   -1.2227338751
C        -0.7473642032   -0.7791599224   -1.3975980938
C         0.1944935669   -0.9141999986   -0.1956630906
C         0.3410953228   -2.3862436648    0.2219004702
C        -1.0251778359   -3.0140492413    0.5137669317
C        -1.9941191738   -2.8666537544   -0.6637038716
H        -0.2670613079   -1.2556911091   -2.2518348482
H        -0.8703377222    0.2682658676   -1.6589831053
H        -2.5378674152   -1.5454045109   -2.2250536344
H         0.7772927879   -2.9218676554   -0.6251693811
H        -0.8989787721   -4.0717593544    0.7339644689
H        -1.4440865154   -2.5716312866    1.4133146084
H        -2.9724183825   -3.2549950567   -0.3961905756
H        -0.2305205997   -0.3675741712    0.6455139877
C         1.5632057979   -0.2908237367   -0.4959862575
C         2.5372844148   -0.4194771542    0.6912050552
C         2.6686966948   -1.8952221191    1.1133121658
C         1.3039001174   -2.5226207955    1.4048516434
H         1.9912417654   -0.7748973573   -1.3726536927
H         1.4413572500    0.7587035585   -0.7517182455
H         3.1596214126   -2.4582080101    0.3218272642
H         3.3092418426   -1.9688898335    1.9878807728
H         1.4299590895   -3.5722854149    1.6598401697
H         0.8660736846   -2.0433279639    2.2805103513
H         2.0899849142    0.1128169623    1.5295568989
C         3.8743888082    0.2285571208    0.4162290349
C         4.3319400378    1.3518921585    1.2050571289
C         4.7468029805   -0.2358918083   -0.6361522560
C         5.5255440116    1.9533179767    0.9807390006
H         3.6961412775    1.7148734252    1.9939305371
C         5.9458883707    0.3416761462   -0.8875666595
H         4.4330161842   -1.0684480086   -1.2402366063
C         6.3937313040    1.4737430172   -0.0814169853
H         5.8446122679    2.7870898417    1.5802350292
H         6.5909152989   -0.0062415764   -1.6699960564
C         7.6662157357    2.0936492159   -0.3401035882
H         7.9364327781    2.9349038850    0.3010206212
O         8.4193176442    1.7246081728   -1.2149733165
C        -4.0045513835    0.5609992987    1.4831984292
C        -5.0954279395    1.0960555432    0.7518503491
C        -3.0757508983   -0.2288243199    0.8859021221
C        -6.0822799329    1.9250076651    1.3470798103
C        -5.1927546747    0.7850451633   -0.6158677319
C        -3.1554532305   -0.5557137842   -0.5000249641
H        -2.2704117252   -0.6097852737    1.4810146125
C        -7.1111613411    2.4152674716    0.6082901259
H        -6.0029894963    2.1596527095    2.3946769291
C        -6.2799270270    1.3116587556   -1.3633355075
C        -4.2043790032   -0.0451190582   -1.2073865490
C        -7.2107714395    2.1029052918   -0.7696358474
H        -7.8559830830    3.0429484869    1.0646978641
H        -6.3557952334    1.0741765287   -2.4104550395
H        -4.3013982310   -0.2711078586   -2.2558559838
H        -8.0305689056    2.4974623138   -1.3436723331
H        -3.9189750252    0.7897687981    2.5318079443
H        -1.6266270170   -3.4925734436   -1.4753194335
$end


$rem
MEM_TOTAL	20000
MEM_STATIC	5000
JOBTYPE    freq 
SYMMETRY   FALSE
EXCHANGE     	HF
CORRELATION  	none  (built-in)
BASIS       	6-31g** 
cis_state_deriv   1
cis_n_roots       3
cis_singlets      false
cis_triplets      true
max_scf_cycles=100
max_cis_cycles=100
$end

--------------------------------------------------------------
 ----------------------------------------------------------------
             Standard Nuclear Orientation (Angstroms)
    I     Atom           X                Y                Z
 ----------------------------------------------------------------
    1      C      -2.1368082613    -1.4328515529    -1.2227339174
    2      C      -0.7473644579    -0.7791621641    -1.3975983054
    3      C       0.1944930378    -0.9142022205    -0.1956630849
    4      C       0.3410936841    -2.3862457512     0.2219013429
    5      C      -1.0251799648    -3.0140501877     0.5137679622
    6      C      -1.9941210231    -2.8666546872    -0.6637030694
    7      H      -0.2670617751    -1.2556941831    -2.2518347149
    8      H      -0.8703371926     0.2682635634    -1.6589839366
    9      H      -2.5378680925    -1.5454059533    -2.2250536716
   10      H       0.7772908936    -2.9218705387    -0.6251681362
   11      H      -0.8989816865    -4.0717602642     0.7339661255
   12      H      -1.4440884628    -2.5716314183     1.4133153228
   13      H      -2.9724205479    -3.2549951396    -0.3961896955
   14      H      -0.2305208645    -0.3675756075     0.6455136164
   15      C       1.5632057571    -0.2908271052    -0.4959864068
   16      C       2.5372841063    -0.4194805343     0.6912051243
   17      C       2.6686952733    -1.8952253504     1.1133131018
   18      C       1.3038982061    -2.5226228880     1.4048527372
   19      H       1.9912415101    -0.7749015339    -1.3726535005
   20      H       1.4413579941     0.7587001299    -0.7517190155
   21      H       3.1596197078    -2.4582120453     0.3218285963
   22      H       3.3092402390    -1.9688930185     1.9878818461
   23      H       1.4299563933    -3.5722874507     1.6598418849
   24      H       0.8660719846    -2.0433292419     2.2805111049
   25      H       2.0899848602     0.1128143819     1.5295565960
   26      C       3.8743890018     0.2285526311     0.4162289302
   27      C       4.3319409139     1.3518877961     1.2050564470
   28      C       4.7468029996    -0.2358975233    -0.6361519646
   29      C       5.5255453490     1.9533126359     0.9807381504
   30      H       3.6961422950     1.7148699683     1.9939295525
   31      C       5.9458888381     0.3416694334    -0.8875665219
   32      H       4.4330157003    -1.0684538471    -1.2402358834
   33      C       6.3937324576     1.4737364485    -0.0814174314
   34      H       5.8446141099     2.7870846180     1.5802337475
   35      H       6.5909156348    -0.0062491976    -1.6699956234
   36      C       7.6662173689     2.0936415930    -0.3401042015
   37      H       7.9364349150     2.9348964379     0.3010195649
   38      O       8.4193191445     1.7245995115    -1.2149736062
   39      C      -4.0045511116     0.5610010296     1.4831969650
   40      C      -5.0954271783     1.0960576306     0.7518484158
   41      C      -3.0757511000    -0.2288235931     0.8859012492
   42      C      -6.0822786699     1.9250107967     1.3470772547
   43      C      -5.1927539320     0.7850465346    -0.6158695010
   44      C      -3.1554534593    -0.5557137965    -0.5000256612
   45      H      -2.2704122863    -0.6097847784     1.4810140778
   46      C      -7.1111596196     2.4152709113     0.6082871361
   47      H      -6.0029882217     2.1596563862     2.3946742505
   48      C      -6.2799257986     1.3116604715    -1.3633377403
   49      C      -4.2043787636    -0.0451187301    -1.2073876948
   50      C      -7.2107697360     2.1029080111    -0.7696386726
   51      H      -7.8559809824     3.0429527188     1.0646944034
   52      H      -6.3557940187     1.0741776973    -2.4104571471
   53      H      -4.3013979968    -0.2711080635    -2.2558570142
   54      H      -8.0305668361     2.4974652870    -1.3436755064
   55      H      -3.9189747460     0.7897710702     2.5318063614
   56      H      -1.6266291915    -3.4925751041    -1.4753182174
 ----------------------------------------------------------------
 Molecular Point Group                 C1    NOp =  1
 Largest Abelian Subgroup              C1    NOp =  1
 Nuclear Repulsion Energy =  2352.9929580068 hartrees
 There are       99 alpha and       99 beta electrons
 Requested basis set is 6-31G(d,p)
 There are 196 shells and 560 basis functions

Total QAlloc Memory Limit  20000 MB
Mega-Array Size      4888 MB
MEM_STATIC part      5000 MB
 A cutoff of  1.0D-11 yielded   9206 shell pairs
 There are     75275 function pairs
 Smallest overlap matrix eigenvalue = 2.64E-04
 Guess from superposition of atomic densities
 Warning:  Energy on first SCF cycle will be non-variational
 A restricted Hartree-Fock SCF calculation will be
 performed using Pulay DIIS extrapolation
 SCF converges when DIIS error is below 1.0E-08
 ---------------------------------------
  Cycle       Energy         DIIS Error
 ---------------------------------------
    1   -1125.9641445920      3.35E-02
    2   -1113.3223266965      2.58E-03
    3   -1113.6197098485      1.34E-03
    4   -1113.6725954621      5.42E-04
    5   -1113.6840602402      6.13E-05
    6   -1113.6843036423      3.00E-05
    7   -1113.6843730074      1.33E-05
    8   -1113.6843915274      6.04E-06
    9   -1113.6843958707      1.81E-06
   10   -1113.6843963115      7.96E-07
   11   -1113.6843964052      3.96E-07
   12   -1113.6843964382      1.73E-07
   13   -1113.6843964446      6.94E-08
   14   -1113.6843964448      2.09E-08
   15   -1113.6843964445      7.32E-09 Convergence criterion met
 ---------------------------------------
 SCF time:  CPU 693.20 s  wall 698.85 s
 SCF   energy in the final basis set = -1113.6843964445
 Total energy in the final basis set = -1113.6843964445
 Direct RCIS calculation will be performed
 Triplet excitation energies requested
 CIS energy converged when residual is below 10e- 6
 ---------------------------------------------------
 Iter    Rts Conv    Rts Left    Ttl Dev     Max Dev
 ---------------------------------------------------
   1         0           3      0.000440    0.000365
   2         0           3      0.000242    0.000135
   3         0           3      0.000586    0.000310
   4         0           3      0.000261    0.000168
   5         0           3      0.000196    0.000108
   6         0           3      0.000270    0.000201
   7         0           3      0.000110    0.000085
   8         1           2      0.000045    0.000038
   9         1           2      0.000020    0.000017
  10         1           2      0.000018    0.000016
  11         2           1      0.000029    0.000028
  12         2           1      0.000116    0.000114
  13         2           1      0.000097    0.000096
  14         2           1      0.000047    0.000046
  15         2           1      0.000028    0.000027
  16         2           1      0.000019    0.000018
  17         2           1      0.000014    0.000013
  18         2           1      0.000007    0.000006
  19         2           1      0.000005    0.000004
  20         2           1      0.000007    0.000006
  21         2           1      0.000011    0.000010
  22         2           1      0.000030    0.000029
  23         2           1      0.000076    0.000075
  24         2           1      0.000042    0.000041
  25         2           1      0.000022    0.000021
  26         2           1      0.000009    0.000008
  27         2           1      0.000004    0.000003
  28         2           1      0.000003    0.000002
  29         2           1      0.000002    0.000001
  30         3           0      0.000001    0.000000    Roots Converged
 ---------------------------------------------------
 
 
 ---------------------------------------------------
               CIS Excitation Energies              
 ---------------------------------------------------

 Excited state   1: excitation energy (eV) =    2.5575
    Total energy for state   1:  -1113.590408631439
    Multiplicity: Triplet 
    Trans. Mom.:  0.0000 X   0.0000 Y   0.0000 Z
    Strength   :  0.0000
    D( 96) --> V(  4) amplitude =  0.2877
    D( 97) --> V(  1) amplitude =  0.8869

 Excited state   2: excitation energy (eV) =    2.7697
    Total energy for state   2:  -1113.582613089176
    Multiplicity: Triplet 
    Trans. Mom.:  0.0000 X   0.0000 Y   0.0000 Z
    Strength   :  0.0000
    D( 95) --> V(  5) amplitude = -0.3223
    D( 98) --> V(  3) amplitude = -0.3637
    D( 99) --> V(  2) amplitude =  0.8061

 Excited state   3: excitation energy (eV) =    4.0950
    Total energy for state   3:  -1113.533906464929
    Multiplicity: Triplet 
    Trans. Mom.:  0.0000 X   0.0000 Y   0.0000 Z
    Strength   :  0.0000
    D( 92) --> V(  1) amplitude = -0.2257
    D( 93) --> V(  1) amplitude = -0.7622
    D( 93) --> V(  8) amplitude = -0.5110
 
 ---------------------------------------------------
 Calculating Relaxed Density
 ---------------------------------------------------
 Iter    Rts Conv    Rts Left    Ttl Dev     Max Dev
 ---------------------------------------------------
   1         0           3      0.000371    0.000183
   2         0           3      0.000120    0.000054
   3         0           3      0.000059    0.000027
   4         0           3      0.000019    0.000009
   5         0           3      0.000006    0.000003
   6         3           0      0.000000    0.000000    Roots Converged
 ---------------------------------------------------
  Timing summary (seconds)
  CPU time       4390.84s
  System time       0.00s
  Wall time      4403.14s
 STSman time:  CPU 0.00 s  wall 0.00 s

 Analysis of SCF Wavefunction
 
 --------------------------------------------------------------
                    Orbital Energies (a.u.)
 --------------------------------------------------------------
 
 Alpha MOs
 -- Occupied --
-20.547 -11.321 -11.271 -11.259 -11.252 -11.247 -11.243 -11.242
-11.241 -11.238 -11.238 -11.236 -11.234 -11.233 -11.233 -11.232
-11.231 -11.230 -11.230 -11.227 -11.227 -11.226 -11.225 -11.225
-11.222 -11.221 -11.221 -11.219  -1.377  -1.178  -1.163  -1.146
 -1.119  -1.090  -1.056  -1.043  -1.034  -1.032  -1.014  -0.993
 -0.981  -0.965  -0.898  -0.869  -0.849  -0.841  -0.832  -0.823
 -0.812  -0.809  -0.779  -0.768  -0.755  -0.703  -0.702  -0.691
 -0.668  -0.661  -0.649  -0.638  -0.635  -0.624  -0.619  -0.608
 -0.607  -0.599  -0.596  -0.595  -0.587  -0.579  -0.578  -0.574
 -0.562  -0.542  -0.537  -0.531  -0.528  -0.522  -0.511  -0.506
 -0.504  -0.498  -0.491  -0.484  -0.481  -0.474  -0.470  -0.465
 -0.458  -0.443  -0.439  -0.417  -0.416  -0.413  -0.379  -0.354
 -0.316  -0.311  -0.286
 -- Virtual --
  0.071   0.101   0.130   0.141   0.188   0.214   0.218   0.221
  0.230   0.242   0.245   0.252   0.259   0.264   0.274   0.276
  0.282   0.292   0.297   0.304   0.310   0.315   0.316   0.322
  0.323   0.327   0.330   0.332   0.338   0.345   0.349   0.352
  0.355   0.359   0.374   0.384   0.389   0.395   0.409   0.411
  0.420   0.423   0.425   0.438   0.440   0.448   0.455   0.466
  0.469   0.479   0.480   0.487   0.492   0.507   0.517   0.520
  0.522   0.534   0.543   0.548   0.564   0.582   0.595   0.663
  0.690   0.697   0.706   0.713   0.722   0.726   0.728   0.732
  0.735   0.738   0.744   0.746   0.751   0.753   0.757   0.764
  0.775   0.777   0.792   0.792   0.797   0.801   0.803   0.805
  0.817   0.820   0.824   0.831   0.839   0.843   0.844   0.852
  0.861   0.865   0.871   0.881   0.885   0.897   0.903   0.907
  0.919   0.924   0.930   0.936   0.945   0.948   0.960   0.970
  0.975   0.985   0.988   0.995   1.010   1.012   1.026   1.032
  1.039   1.046   1.051   1.058   1.062   1.070   1.072   1.077
  1.079   1.082   1.084   1.085   1.091   1.093   1.104   1.104
  1.106   1.114   1.120   1.123   1.130   1.132   1.139   1.148
  1.158   1.161   1.165   1.175   1.184   1.186   1.194   1.199
  1.201   1.205   1.213   1.214   1.218   1.223   1.229   1.230
  1.232   1.238   1.243   1.254   1.268   1.282   1.283   1.308
  1.308   1.320   1.328   1.348   1.366   1.374   1.384   1.391
  1.398   1.417   1.420   1.433   1.446   1.458   1.468   1.484
  1.494   1.501   1.505   1.508   1.534   1.548   1.555   1.573
  1.584   1.594   1.605   1.611   1.624   1.635   1.647   1.653
  1.655   1.661   1.666   1.690   1.690   1.695   1.705   1.706
  1.712   1.722   1.726   1.729   1.762   1.768   1.780   1.788
  1.800   1.809   1.823   1.841   1.864   1.894   1.903   1.927
  1.948   1.964   1.975   1.992   2.017   2.035   2.037   2.045
  2.051   2.054   2.057   2.088   2.095   2.102   2.112   2.114
  2.117   2.130   2.135   2.144   2.149   2.158   2.169   2.171
  2.179   2.183   2.191   2.195   2.197   2.204   2.207   2.216
  2.226   2.226   2.234   2.237   2.241   2.248   2.253   2.260
  2.274   2.278   2.285   2.287   2.298   2.301   2.311   2.316
  2.339   2.340   2.352   2.358   2.371   2.373   2.386   2.399
  2.407   2.411   2.424   2.440   2.449   2.461   2.465   2.470
  2.473   2.478   2.498   2.501   2.510   2.517   2.525   2.532
  2.544   2.554   2.558   2.575   2.581   2.588   2.595   2.602
  2.604   2.621   2.632   2.639   2.653   2.662   2.668   2.672
  2.686   2.689   2.700   2.704   2.711   2.716   2.718   2.728
  2.734   2.742   2.747   2.751   2.757   2.766   2.772   2.785
  2.791   2.794   2.802   2.808   2.828   2.838   2.842   2.845
  2.857   2.865   2.871   2.879   2.889   2.895   2.900   2.910
  2.920   2.922   2.928   2.932   2.942   2.951   2.953   2.954
  2.969   2.983   2.988   2.998   3.004   3.014   3.015   3.037
  3.042   3.047   3.061   3.066   3.076   3.082   3.089   3.100
  3.112   3.137   3.145   3.160   3.164   3.166   3.175   3.183
  3.188   3.195   3.210   3.219   3.223   3.226   3.231   3.242
  3.268   3.282   3.292   3.296   3.305   3.328   3.348   3.354
  3.370   3.374   3.392   3.405   3.432   3.442   3.482   3.523
  3.532   3.558   3.600   3.630   3.631   3.638   3.661   3.664
  3.674   3.693   3.698   3.716   3.728   3.742   3.748   3.775
  3.789   3.805   3.819   3.826   3.872   3.886   3.888   3.890
  3.904   3.922   3.927   3.929   3.968   3.992   4.169   4.202
  4.317   4.364   4.526   4.546   4.571   4.574   4.585   4.606
  4.616   4.635   4.710   4.750   4.776   4.815   4.830   4.856
  4.860   4.898   4.931   4.947   4.975   5.097   5.136   5.194
  5.222   5.255   5.285   5.299   5.386
 --------------------------------------------------------------
 
          Ground-State Mulliken Net Atomic Charges

     Atom                 Charge (a.u.)
  ----------------------------------------
      1 C                    -0.165627
      2 C                    -0.189234
      3 C                    -0.133777
      4 C                    -0.121497
      5 C                    -0.208511
      6 C                    -0.208658
      7 H                     0.108347
      8 H                     0.124578
      9 H                     0.128706
     10 H                     0.104292
     11 H                     0.115730
     12 H                     0.105893
     13 H                     0.125789
     14 H                     0.109991
     15 C                    -0.185076
     16 C                    -0.165744
     17 C                    -0.201433
     18 C                    -0.208461
     19 H                     0.108196
     20 H                     0.125726
     21 H                     0.111096
     22 H                     0.124710
     23 H                     0.118179
     24 H                     0.104778
     25 H                     0.125125
     26 C                     0.026560
     27 C                    -0.174306
     28 C                    -0.154013
     29 C                    -0.109032
     30 H                     0.151114
     31 C                    -0.086482
     32 H                     0.153375
     33 C                    -0.180352
     34 H                     0.164969
     35 H                     0.197123
     36 C                     0.396334
     37 H                     0.106846
     38 O                    -0.539787
     39 C                    -0.128207
     40 C                    -0.040329
     41 C                    -0.153480
     42 C                    -0.124539
     43 C                    -0.024763
     44 C                     0.021316
     45 H                     0.141694
     46 C                    -0.160174
     47 H                     0.151110
     48 C                    -0.127292
     49 C                    -0.164173
     50 C                    -0.157913
     51 H                     0.150184
     52 H                     0.151170
     53 H                     0.146372
     54 H                     0.150497
     55 H                     0.151297
     56 H                     0.111761
  ----------------------------------------
  Sum of atomic charges =     0.000000

 -----------------------------------------------------------------
                    Cartesian Multipole Moments
 -----------------------------------------------------------------
    Charge (ESU x 10^10)
                 0.0000
    Dipole Moment (Debye)
         X      -3.8220      Y      -0.6187      Z       2.1058
       Tot       4.4074
    Quadrupole Moments (Debye-Ang)
        XX    -212.4943     XY      -8.2803     YY    -162.7471
        XZ      18.4889     YZ       9.9336     ZZ    -160.4027
    Octopole Moments (Debye-Ang^2)
       XXX    -504.3647    XXY      19.4081    XYY      28.9389
       YYY       4.8247    XXZ     126.5531    XYZ      39.6761
       YYZ      14.7724    XZZ     -34.0554    YZZ       3.8984
       ZZZ       0.0871
    Hexadecapole Moments (Debye-Ang^3)
      XXXX  -25570.7930   XXXY    -992.9943   XXYY   -3811.0639
      XYYY     145.8950   YYYY   -2895.0664   XXXZ    1369.8298
      XXYZ     423.4987   XYYZ      53.2844   YYYZ      37.2418
      XXZZ   -3724.9555   XYZZ     -58.5596   YYZZ    -680.8801
      XZZZ      -4.6665   YZZZ      33.9970   ZZZZ   -1189.8846
 -----------------------------------------------------------------
 Calculating MO derivatives via CPSCF
   1         3         168      0.155248    0.016010
   2         3         168      0.031761    0.004478
   3         3         168      0.006308    0.001086
   4        17         154      0.000895    0.000167
   5       166           5      0.000044    0.000019
   6       168           3      0.000005    0.000002
   7       171           0      0.000000    0.000000    Roots Converged
 Calculating CIS amplitude derivatives via CPCIS
 CIS relaxed dipole moment
            1
    1   0.2440813
    2   0.0970391
    3  -0.0459895
	Magnitude:	 0.267 au	 0.678 Debye
 CIS Excitation Energy is    0.0939878131
 Gradient of the CIS Excitation Energy
            1           2           3           4           5           6
    1  -0.0000077   0.0002358   0.0001723   0.0000183  -0.0000262   0.0000202
    2  -0.0000125   0.0001682   0.0000203  -0.0000885   0.0000153  -0.0000192
    3   0.0001366  -0.0002139   0.0009021  -0.0001177   0.0000707  -0.0000569
            7           8           9          10          11          12
    1   0.0000021   0.0000019   0.0000701  -0.0000037   0.0000194   0.0000068
    2   0.0000118  -0.0000268   0.0000181   0.0000195   0.0000215  -0.0000033
    3   0.0000081   0.0000094   0.0000124   0.0000226  -0.0000095  -0.0000125
           13          14          15          16          17          18
    1   0.0000371  -0.0000548   0.0011500  -0.0042498   0.0017333  -0.0003138
    2   0.0000176  -0.0000295   0.0007036  -0.0013374  -0.0002548   0.0007971
    3   0.0000101  -0.0000295  -0.0012318   0.0016112  -0.0002934   0.0000917
           19          20          21          22          23          24
    1   0.0000357   0.0000679  -0.0000627  -0.0000111   0.0002822  -0.0000182
    2   0.0001627  -0.0001047   0.0002957   0.0000079   0.0002035  -0.0000681
    3   0.0003018  -0.0000081   0.0001706  -0.0001180  -0.0000618  -0.0000086
           25          26          27          28          29          30
    1   0.0005893   0.0440050  -0.0400085  -0.0432302   0.0539552  -0.0008457
    2   0.0000649   0.0256758  -0.0449099   0.0001367  -0.0123342  -0.0007245
    3  -0.0003493  -0.0051907  -0.0166372   0.0297291  -0.0488807  -0.0001204
           31          32          33          34          35          36
    1   0.0316165  -0.0008126  -0.0651979   0.0000672   0.0006245   0.0338770
    2   0.0541531  -0.0002500  -0.0307146   0.0006576  -0.0002858  -0.0052594
    3   0.0316135   0.0003210   0.0142495   0.0006196  -0.0006856  -0.0282701
           37          38          39          40          41          42
    1   0.0005787  -0.0143387   0.0000029   0.0000037   0.0000115  -0.0000026
    2   0.0012087   0.0120598   0.0000044  -0.0000092  -0.0000079   0.0000074
    3   0.0007902   0.0216034   0.0000214  -0.0000184  -0.0000439   0.0000237
           43          44          45          46          47          48
    1  -0.0000134  -0.0000309  -0.0000032   0.0000090  -0.0000014   0.0000037
    2   0.0000073   0.0000518  -0.0000015  -0.0000065   0.0000007  -0.0000086
    3   0.0000121   0.0000338   0.0000295   0.0000021  -0.0000043  -0.0000194
           49          50          51          52          53          54
    1   0.0000267   0.0000046   0.0000057  -0.0000014  -0.0000043   0.0000067
    2  -0.0000231  -0.0000051  -0.0000037   0.0000031   0.0000048  -0.0000029
    3  -0.0000211  -0.0000047  -0.0000026   0.0000049  -0.0000006   0.0000026
           55          56
    1   0.0000012  -0.0000032
    2  -0.0000003  -0.0000070
    3  -0.0000041   0.0000111
gradient:0.000008
gradient:0.000014
gradient:-0.000133
gradient:-0.000230
gradient:-0.000169
gradient:0.000223
gradient:-0.000171
gradient:-0.000018
gradient:-0.000908
gradient:-0.000015
gradient:0.000088
gradient:0.000120
gradient:0.000036
gradient:-0.000010
gradient:-0.000072
gradient:-0.000018
gradient:0.000020
gradient:0.000057
gradient:-0.000002
gradient:-0.000012
gradient:-0.000007
gradient:-0.000001
gradient:0.000027
gradient:-0.000010
gradient:-0.000071
gradient:-0.000018
gradient:-0.000013
gradient:0.000004
gradient:-0.000016
gradient:-0.000020
gradient:-0.000019
gradient:-0.000022
gradient:0.000010
gradient:-0.000006
gradient:0.000004
gradient:0.000012
gradient:-0.000039
gradient:-0.000018
gradient:-0.000010
gradient:0.000058
gradient:0.000027
gradient:0.000027
gradient:-0.001152
gradient:-0.000705
gradient:0.001242
gradient:0.004223
gradient:0.001307
gradient:-0.001620
gradient:-0.001743
gradient:0.000262
gradient:0.000292
gradient:0.000317
gradient:-0.000792
gradient:-0.000095
gradient:-0.000038
gradient:-0.000165
gradient:-0.000300
gradient:-0.000070
gradient:0.000097
gradient:0.000009
gradient:0.000060
gradient:-0.000296
gradient:-0.000171
gradient:0.000005
gradient:-0.000009
gradient:0.000113
gradient:-0.000282
gradient:-0.000202
gradient:0.000061
gradient:0.000019
gradient:0.000069
gradient:0.000005
gradient:-0.000593
gradient:-0.000066
gradient:0.000350
gradient:-0.043964
gradient:-0.025620
gradient:0.005217
gradient:0.039974
gradient:0.044856
gradient:0.016608
gradient:0.043256
gradient:-0.000115
gradient:-0.029726
gradient:-0.053911
gradient:0.012335
gradient:0.048851
gradient:0.000847
gradient:0.000735
gradient:0.000130
gradient:-0.031638
gradient:-0.054153
gradient:-0.031598
gradient:0.000822
gradient:0.000257
gradient:-0.000321
gradient:0.065079
gradient:0.030661
gradient:-0.014222
gradient:-0.000064
gradient:-0.000649
gradient:-0.000613
gradient:-0.000617
gradient:0.000280
gradient:0.000675
gradient:-0.033841
gradient:0.005301
gradient:0.028286
gradient:-0.000584
gradient:-0.001200
gradient:-0.000776
gradient:0.014373
gradient:-0.012079
gradient:-0.021646
gradient:-0.000000
gradient:-0.000005
gradient:-0.000019
gradient:-0.000005
gradient:0.000010
gradient:0.000016
gradient:-0.000009
gradient:0.000006
gradient:0.000041
gradient:0.000001
gradient:-0.000006
gradient:-0.000023
gradient:0.000013
gradient:-0.000007
gradient:-0.000014
gradient:0.000030
gradient:-0.000051
gradient:-0.000037
gradient:0.000003
gradient:0.000002
gradient:-0.000031
gradient:-0.000010
gradient:0.000007
gradient:-0.000003
gradient:0.000001
gradient:-0.000000
gradient:0.000006
gradient:-0.000002
gradient:0.000008
gradient:0.000020
gradient:-0.000023
gradient:0.000021
gradient:0.000022
gradient:-0.000004
gradient:0.000005
gradient:0.000004
gradient:-0.000007
gradient:0.000004
gradient:0.000003
gradient:0.000002
gradient:-0.000003
gradient:-0.000004
gradient:0.000004
gradient:-0.000004
gradient:0.000002
gradient:-0.000007
gradient:0.000003
gradient:-0.000003
gradient:-0.000001
gradient:0.000000
gradient:0.000007
gradient:0.000004
gradient:0.000007
gradient:-0.000012
gradient:0.244579
gradient:0.097400
gradient:-0.045645
   1        74          97      0.014984    0.003033
   2       104          67      0.002781    0.000405
   3       121          50      0.000579    0.000061
   4       137          34      0.000130    0.000012
   5       163           8      0.000012    0.000003
   6       170           1      0.000001    0.000001
   7       170           1      0.000001    0.000001
   8       171           0      0.000000    0.000000    Roots Converged
 CPCIS time:  CPU 14103.54 s  wall 14147.59 s
 transition dipole derivative
            1           2           3
    1  -0.0063216  -0.0014066  -0.0006189
    2  -0.0019689  -0.0007908  -0.0006374
    3   0.0067264   0.0008098  -0.0001197
    4   0.0087415   0.0016064   0.0010478
    5   0.0082582  -0.0000913   0.0004163
    6  -0.0126638  -0.0023188  -0.0010305
    7  -0.0203699  -0.0108754   0.0013889
    8  -0.0203767  -0.0015563   0.0042987
    9   0.0276479   0.0046760   0.0064719
   10   0.0023398   0.0003675   0.0006438
   11  -0.0023561  -0.0001077  -0.0004691
   12  -0.0031156  -0.0027868   0.0016684
   13  -0.0018089  -0.0001176   0.0006773
   14   0.0005017  -0.0001290   0.0004694
   15   0.0024786   0.0010397  -0.0014129
   16   0.0007314   0.0003548  -0.0001649
   17  -0.0008909  -0.0001602  -0.0003466
   18  -0.0025534  -0.0011319   0.0009246
   19  -0.0004873  -0.0000970  -0.0003104
   20  -0.0000609   0.0005450   0.0005194
   21   0.0002243   0.0005474   0.0005552
   22  -0.0002984  -0.0003035  -0.0002457
   23  -0.0012005   0.0000674   0.0003142
   24   0.0007029  -0.0002883  -0.0005261
   25   0.0030596   0.0007265  -0.0005896
   26   0.0008200   0.0000540   0.0000343
   27   0.0001168   0.0001625  -0.0003138
   28  -0.0003772   0.0000576   0.0001156
   29   0.0001898   0.0006614   0.0008030
   30   0.0002297   0.0011182   0.0006357
   31   0.0010428   0.0000605  -0.0001930
   32   0.0012094   0.0003211  -0.0001938
   33  -0.0004718  -0.0002067  -0.0000011
   34   0.0004145  -0.0001133  -0.0003478
   35  -0.0001316   0.0000391   0.0000856
   36  -0.0005856   0.0000920   0.0004718
   37   0.0017846   0.0005344  -0.0007733
   38   0.0009231   0.0002180  -0.0002341
   39   0.0002860   0.0001649  -0.0002157
   40   0.0027809  -0.0025986  -0.0044665
   41   0.0003295  -0.0001792  -0.0008391
   42  -0.0030882   0.0012058   0.0023721
   43  -0.0418782  -0.0295501  -0.0412249
   44   0.0311586  -0.0301284   0.0106877
   45  -0.1233826  -0.0175351  -0.0420935
   46   0.3155295   0.1126426   0.0778635
   47   0.1314018   0.2450313  -0.1019064
   48   0.0996617  -0.0871711   0.1065715
   49   0.0174764   0.0272796  -0.0503742
   50  -0.0620542  -0.1148893   0.0254886
   51  -0.0035729   0.0303214  -0.0191149
   52  -0.0257544  -0.0195171   0.0111070
   53  -0.0010306   0.0115035  -0.0048906
   54   0.0004874   0.0028917   0.0052729
   55  -0.0054122   0.0068698   0.0116430
   56  -0.0027339   0.0084895   0.0097563
   57  -0.0010049   0.0149021   0.0228793
   58  -0.0000630  -0.0072047   0.0006956
   59  -0.0083959  -0.0020030  -0.0010753
   60   0.0066046  -0.0043943  -0.0052888
   61  -0.0021854  -0.0026702   0.0025941
   62  -0.0082221   0.0225822   0.0214338
   63   0.0001454   0.0062969   0.0056450
   64  -0.0084295  -0.0028151   0.0022489
   65   0.0006813  -0.0022333  -0.0087917
   66  -0.0016176  -0.0048947   0.0034864
   67   0.0055695   0.0057448  -0.0041098
   68   0.0019473  -0.0025083  -0.0016367
   69  -0.0008163   0.0002057  -0.0000934
   70   0.0040333  -0.0020988  -0.0050035
   71  -0.0004591  -0.0015041  -0.0003219
   72  -0.0018561   0.0009770   0.0028226
   73   0.0099151  -0.0273363  -0.0345782
   74  -0.0001369  -0.0050359  -0.0041550
   75  -0.0085367   0.0144778   0.0190168
   76  -1.4103682  -0.0101140   0.3025557
   77   0.2369470  -2.2604461  -1.4485632
   78   0.5475180  -1.2780543  -2.5766627
   79   1.8660399   1.3171346   0.4405352
   80   0.7862097   2.0493347   0.8643642
   81  -0.0808771   0.5013074   1.1658876
   82   2.5617919   0.0137774  -1.3106741
   83   0.3828653   0.9148785   0.0234097
   84  -0.9476256   0.2759727   1.5430187
   85  -2.4738816  -0.3557112   0.8924483
   86  -0.3990537  -1.0371149  -0.1014829
   87   0.8477245  -0.1304315  -1.3653010
   88  -0.0323566   0.0374774   0.0033288
   89   0.0223293  -0.0188318   0.0460116
   90  -0.0112590   0.0352759  -0.0390934
   91  -2.1435246  -0.8553440   0.1713951
   92  -0.8963197  -1.6378684  -0.3408345
   93   0.1294301  -0.3718858  -1.1162361
   94  -0.0136769   0.0066081  -0.0366246
   95   0.0130577  -0.0427853   0.0244248
   96  -0.0302624   0.0292254  -0.0273349
   97   2.0657512  -0.0256750  -0.8231194
   98   0.2327603   1.7847240   0.7101500
   99  -0.5665973   0.8878171   2.1565398
  100   0.0161446  -0.0248267   0.0246866
  101  -0.0267911   0.0527106  -0.0162826
  102   0.0226842  -0.0173008   0.0556083
  103   0.0247020  -0.0295231   0.0126999
  104  -0.0337458   0.0473142  -0.0146252
  105   0.0084324  -0.0177925   0.0623680
  106  -1.6451580   0.0767797   0.9946395
  107   0.0536124  -0.2592071   0.0003139
  108   0.9711736  -0.0147751  -0.9743889
  109  -0.0067194  -0.0306671   0.0047744
  110  -0.0291605   0.0284139   0.0041934
  111   0.0063762   0.0050949   0.0452325
  112   0.9298094  -0.1694575  -0.6436524
  113  -0.4099344   0.2503019   0.3000721
  114  -0.8792037   0.1357140   0.9624026
  115   0.0004678  -0.0002242  -0.0004626
  116   0.0002278   0.0006948   0.0005807
  117   0.0010237  -0.0000020   0.0000645
  118  -0.0004270   0.0000359  -0.0006391
  119  -0.0001044  -0.0001955   0.0006196
  120  -0.0006623   0.0000781   0.0007148
  121   0.0004216   0.0002531   0.0005590
  122  -0.0002243  -0.0000014  -0.0003880
  123  -0.0019682  -0.0008131  -0.0003605
  124   0.0007005   0.0000348   0.0014847
  125  -0.0000421   0.0003603  -0.0008093
  126   0.0012740   0.0002893   0.0003011
  127  -0.0001857  -0.0002388   0.0003369
  128   0.0001157   0.0002742  -0.0002835
  129   0.0004590   0.0001868  -0.0004496
  130   0.0001582   0.0003841   0.0031977
  131   0.0016912   0.0003167  -0.0022762
  132   0.0015934   0.0004864   0.0007864
  133  -0.0001006  -0.0000157   0.0000540
  134  -0.0002416  -0.0004793  -0.0003535
  135   0.0015416   0.0002491  -0.0007247
  136  -0.0001065   0.0000313  -0.0014822
  137  -0.0001387  -0.0001093   0.0006475
  138  -0.0002264  -0.0000188  -0.0018098
  139  -0.0000791  -0.0001417  -0.0000600
  140  -0.0000084  -0.0000553  -0.0000474
  141  -0.0002984   0.0000347   0.0002007
  142  -0.0000700   0.0003553   0.0011936
  143  -0.0004234  -0.0004953  -0.0009043
  144  -0.0011877  -0.0005018  -0.0006413
  145   0.0001693   0.0000103  -0.0023767
  146  -0.0003980  -0.0002177   0.0014730
  147  -0.0014281  -0.0003950  -0.0010165
  148   0.0002670  -0.0002271  -0.0014588
  149  -0.0000773   0.0004080   0.0014698
  150   0.0000233   0.0001761   0.0017159
  151   0.0003701   0.0000603  -0.0001731
  152  -0.0002333  -0.0000844   0.0000481
  153  -0.0001492  -0.0000475   0.0000267
  154  -0.0000907  -0.0000122   0.0000529
  155   0.0001350   0.0000312  -0.0000567
  156   0.0001883   0.0001397   0.0000458
  157  -0.0002155  -0.0000050   0.0001254
  158   0.0001947   0.0000243  -0.0000333
  159  -0.0001096   0.0001189   0.0001896
  160   0.0003538   0.0001327  -0.0000998
  161  -0.0001689  -0.0001144   0.0000127
  162   0.0001800   0.0000988  -0.0000008
  163  -0.0000435  -0.0002933  -0.0002394
  164  -0.0000585  -0.0000929  -0.0000556
  165  -0.0002822   0.0002154   0.0003428
  166  -0.0001761  -0.0001385  -0.0000301
  167  -0.0004246   0.0001165   0.0003957
  168   0.0004684   0.0003758  -0.0000094
mem use when entering cis_hess,0,625000000
mem use when entering PV,0,625000000
mem use when entering PT + WS,0,625000000
mem use when entering II^xy,0,625000000
mem use when entering PCM,0,625000000
mem use when entering E^xy,0,625000000
mem use when entering PF,0,625000000
mem use when entering ws,0,625000000
mem use when entering RPA_Hess_IIx,0,625000000
Nshell = 196 
s2Bra.ftnCode() = 360011 
 hess cis_hess_iirx
            1           2           3           4           5           6
    1  -0.0003892  -0.0001128  -0.0002038   0.0000566  -0.0000479   0.0001569
    2  -0.0001128  -0.0000463  -0.0000422  -0.0000232  -0.0000195   0.0000246
    3  -0.0002038  -0.0000422  -0.0001329   0.0000774  -0.0000203   0.0001055
    4   0.0000566  -0.0000232   0.0000774  -0.0016862  -0.0004134  -0.0002316
    5  -0.0000479  -0.0000195  -0.0000203  -0.0004134  -0.0001425  -0.0000145
    6   0.0001569   0.0000246   0.0001055  -0.0002316  -0.0000145  -0.0001742
    7  -0.0001654  -0.0000794  -0.0000622   0.0006010   0.0002132  -0.0001021
    8  -0.0000601  -0.0000209  -0.0000185   0.0003274   0.0001170  -0.0000282
    9  -0.0001680  -0.0000707  -0.0000607  -0.0006809  -0.0001758  -0.0000464
   10   0.0001117   0.0000244   0.0000628  -0.0000716  -0.0000082  -0.0000070
   11   0.0000157  -0.0000056   0.0000168  -0.0001316  -0.0000359  -0.0000246
   12  -0.0000091   0.0000065  -0.0000115   0.0001107   0.0000228   0.0000151
   13   0.0000001  -0.0000028   0.0000021  -0.0000375  -0.0000038  -0.0000085
   14   0.0000319   0.0000121   0.0000182   0.0000529   0.0000193  -0.0000094
   15  -0.0000189  -0.0000075  -0.0000083  -0.0000510  -0.0000144  -0.0000008
   16   0.0000450   0.0000132   0.0000255  -0.0000361  -0.0000109  -0.0000137
   17   0.0000266   0.0000095   0.0000113  -0.0000098  -0.0000009  -0.0000049
   18   0.0000214   0.0000030   0.0000130  -0.0000253  -0.0000063  -0.0000073
   19  -0.0000015  -0.0000008   0.0000001   0.0000497   0.0000125   0.0000085
   20  -0.0000018  -0.0000020   0.0000009   0.0000148   0.0000065   0.0000030
   21  -0.0000034  -0.0000015  -0.0000014   0.0000026  -0.0000010   0.0000049
   22  -0.0000120  -0.0000049  -0.0000040   0.0000357   0.0000022   0.0000111
   23  -0.0000021  -0.0000003  -0.0000003   0.0000146   0.0000052   0.0000022
   24   0.0000016   0.0000019   0.0000007   0.0000060   0.0000019   0.0000012
   25   0.0000403   0.0000252   0.0000083   0.0000086  -0.0000014   0.0000056
   26   0.0000292   0.0000174   0.0000060   0.0000051   0.0000018   0.0000029
   27   0.0000071   0.0000042   0.0000029  -0.0000027  -0.0000015   0.0000004
   28  -0.0000024  -0.0000009  -0.0000012  -0.0000034  -0.0000009   0.0000001
   29   0.0000006   0.0000007   0.0000000   0.0000029   0.0000006   0.0000002
   30  -0.0000014  -0.0000007  -0.0000006  -0.0000032  -0.0000009   0.0000000
   31  -0.0000142  -0.0000045  -0.0000080   0.0000002  -0.0000028   0.0000080
   32  -0.0000030  -0.0000010  -0.0000016  -0.0000002  -0.0000007   0.0000017
   33  -0.0000065  -0.0000021  -0.0000036  -0.0000002  -0.0000013   0.0000035
   34   0.0000037   0.0000006   0.0000030   0.0000011   0.0000011  -0.0000028
   35  -0.0000022  -0.0000003  -0.0000019  -0.0000004  -0.0000006   0.0000019
   36   0.0000035   0.0000005   0.0000029   0.0000008   0.0000012  -0.0000028
   37  -0.0000014  -0.0000006  -0.0000007   0.0000036   0.0000008   0.0000007
   38   0.0000008   0.0000003   0.0000004  -0.0000017  -0.0000004  -0.0000003
   39  -0.0000047  -0.0000016  -0.0000022   0.0000080   0.0000017   0.0000015
   40   0.0000043   0.0000028   0.0000023  -0.0000023  -0.0000001   0.0000009
   41   0.0000060   0.0000019   0.0000025   0.0000053   0.0000049  -0.0000001
   42   0.0000055   0.0000022   0.0000036  -0.0000181  -0.0000086  -0.0000051
   43   0.0007484   0.0000612   0.0005333  -0.0010035  -0.0000129  -0.0009108
   44   0.0005099   0.0000474   0.0003476  -0.0008025  -0.0000374  -0.0005638
   45   0.0002175   0.0000711   0.0000987   0.0006281   0.0001991   0.0000483
   46   0.0001482   0.0002666  -0.0000866   0.0037355   0.0009413   0.0008727
   47  -0.0003487   0.0001083  -0.0005241  -0.0012046  -0.0009386   0.0016218
   48   0.0003474  -0.0000042   0.0004019   0.0020923   0.0010208  -0.0010628
   49  -0.0001618  -0.0000757  -0.0000998   0.0002709   0.0000810  -0.0000592
   50  -0.0001424  -0.0000620  -0.0000810  -0.0000683  -0.0000316  -0.0000433
   51   0.0000214   0.0000037   0.0000219  -0.0001028  -0.0000157  -0.0000130
   52  -0.0000332  -0.0000058  -0.0000215   0.0002001   0.0000546  -0.0000058
   53  -0.0000149  -0.0000027  -0.0000110   0.0002652   0.0000893  -0.0000106
   54   0.0000144   0.0000009   0.0000103  -0.0000539  -0.0000222  -0.0000017
   55  -0.0000113  -0.0000006  -0.0000145   0.0000205   0.0000000  -0.0000048
   56   0.0000024   0.0000011  -0.0000040  -0.0000101  -0.0000005  -0.0000293
   57  -0.0000008   0.0000008  -0.0000004  -0.0000268  -0.0000067   0.0000043
   58   0.0000278   0.0000161   0.0000180  -0.0001140  -0.0000178  -0.0000106
   59   0.0000169   0.0000090   0.0000109  -0.0000065   0.0000043  -0.0000002
   60  -0.0000147  -0.0000035  -0.0000100   0.0000056  -0.0000033   0.0000116
   61   0.0000049   0.0000026   0.0000028   0.0000342   0.0000138  -0.0000141
   62   0.0000012   0.0000004   0.0000010   0.0000321   0.0000121  -0.0000081
   63   0.0000010   0.0000004   0.0000009   0.0000057   0.0000036  -0.0000061
   64  -0.0000162  -0.0000059   0.0000019  -0.0001256  -0.0000303  -0.0000102
   65  -0.0000118  -0.0000040   0.0000006  -0.0000721  -0.0000151  -0.0000078
   66   0.0000080   0.0000024   0.0000013   0.0000318   0.0000062   0.0000044
   67   0.0000092   0.0000020   0.0000057  -0.0000247  -0.0000069   0.0000032
   68   0.0000039   0.0000011   0.0000023  -0.0000225  -0.0000061   0.0000035
   69  -0.0000022  -0.0000005  -0.0000011   0.0000061  -0.0000007  -0.0000027
   70   0.0000002  -0.0000005   0.0000001   0.0000007   0.0000015  -0.0000021
   71   0.0000007  -0.0000002   0.0000005  -0.0000034  -0.0000008  -0.0000020
   72   0.0000005   0.0000003   0.0000002  -0.0000026  -0.0000010   0.0000008
   73   0.0000116   0.0000046   0.0000085  -0.0000167  -0.0000047  -0.0000062
   74  -0.0000137  -0.0000070  -0.0000095   0.0000152   0.0000065   0.0000012
   75   0.0000149   0.0000066   0.0000110  -0.0000191  -0.0000059  -0.0000058
   76  -0.0003462  -0.0001229  -0.0001030  -0.0013383  -0.0005007   0.0000557
   77   0.0001363   0.0000207   0.0002894   0.0019577   0.0008774  -0.0006731
   78  -0.0003339  -0.0000426  -0.0003485  -0.0017303  -0.0008282   0.0007550
   79  -0.0001054  -0.0000292  -0.0000985   0.0006686   0.0001445   0.0001780
   80  -0.0000381  -0.0000091  -0.0000779  -0.0013782  -0.0004406  -0.0000350
   81  -0.0000840  -0.0000286  -0.0001099   0.0010613   0.0002500   0.0002466
   82   0.0000144   0.0000422  -0.0000500  -0.0011854  -0.0003744   0.0000598
   83  -0.0000249  -0.0000717   0.0000323   0.0011712   0.0003814  -0.0001045
   84   0.0000188   0.0000787   0.0000195  -0.0008061  -0.0002590   0.0000581
   85   0.0000278   0.0000032  -0.0000003   0.0000994   0.0000134   0.0000431
   86  -0.0000180  -0.0000055   0.0000282  -0.0001817  -0.0000052  -0.0001021
   87   0.0000069  -0.0000013  -0.0000097   0.0001962   0.0000246   0.0000607
   88   0.0000014  -0.0000000  -0.0000004  -0.0000082  -0.0000042   0.0000040
   89  -0.0000010   0.0000003   0.0000010   0.0000134   0.0000066  -0.0000057
   90   0.0000014  -0.0000002  -0.0000008  -0.0000119  -0.0000062   0.0000061
   91  -0.0000601  -0.0000213  -0.0000453  -0.0002222  -0.0000958   0.0000751
   92   0.0000584   0.0000188   0.0000359   0.0004787   0.0001617  -0.0000588
   93  -0.0000463  -0.0000113  -0.0000378  -0.0004636  -0.0001669   0.0000771
   94   0.0000017   0.0000009   0.0000003  -0.0000072  -0.0000040   0.0000022
   95  -0.0000023  -0.0000011  -0.0000007   0.0000134   0.0000062  -0.0000028
   96   0.0000019   0.0000010   0.0000004  -0.0000133  -0.0000064   0.0000027
   97   0.0000046   0.0000000   0.0000831   0.0001602   0.0001039  -0.0001516
   98  -0.0000466  -0.0000026  -0.0000160  -0.0000465  -0.0000337   0.0000533
   99   0.0000379   0.0000018   0.0000356   0.0000603   0.0000584  -0.0000803
  100  -0.0000032  -0.0000001  -0.0000056   0.0000241   0.0000024   0.0000090
  101   0.0000056  -0.0000001   0.0000086  -0.0000376  -0.0000038  -0.0000144
  102  -0.0000042   0.0000001  -0.0000080   0.0000357   0.0000037   0.0000129
  103  -0.0000051   0.0000001  -0.0000047  -0.0000430  -0.0000161   0.0000039
  104   0.0000061  -0.0000005   0.0000059   0.0000631   0.0000233  -0.0000044
  105  -0.0000045   0.0000009  -0.0000048  -0.0000677  -0.0000244   0.0000023
  106   0.0000260   0.0000010  -0.0000625  -0.0000941  -0.0000666   0.0000961
  107   0.0000018  -0.0000009  -0.0000089  -0.0000100  -0.0000025   0.0000187
  108  -0.0000156  -0.0000027   0.0000332   0.0000652   0.0000366  -0.0000575
  109   0.0000005   0.0000002  -0.0000001   0.0000123   0.0000032   0.0000007
  110  -0.0000007  -0.0000002  -0.0000003  -0.0000180  -0.0000051  -0.0000003
  111   0.0000010   0.0000004  -0.0000001   0.0000170   0.0000045   0.0000008
  112  -0.0000117  -0.0000017   0.0000289   0.0000286   0.0000293  -0.0000472
  113   0.0000076   0.0000008  -0.0000107   0.0000084  -0.0000069   0.0000190
  114   0.0000083   0.0000020  -0.0000318  -0.0000790  -0.0000420   0.0000487
  115  -0.0000006  -0.0000005  -0.0000003  -0.0000000   0.0000000  -0.0000002
  116  -0.0000047  -0.0000023  -0.0000016   0.0000014   0.0000005  -0.0000000
  117   0.0000011   0.0000006   0.0000008  -0.0000004  -0.0000003   0.0000002
  118   0.0000026   0.0000013   0.0000008   0.0000005   0.0000003  -0.0000001
  119   0.0000040   0.0000019   0.0000005   0.0000008   0.0000004  -0.0000001
  120  -0.0000019  -0.0000007  -0.0000009  -0.0000002  -0.0000001   0.0000003
  121  -0.0000318  -0.0000143  -0.0000120   0.0000042  -0.0000004   0.0000016
  122  -0.0000106  -0.0000052   0.0000001  -0.0000037  -0.0000018   0.0000002
  123   0.0000059   0.0000020   0.0000045  -0.0000027  -0.0000006  -0.0000019
  124  -0.0000007  -0.0000003  -0.0000005  -0.0000001  -0.0000001   0.0000002
  125  -0.0000011  -0.0000004  -0.0000006  -0.0000003  -0.0000002   0.0000002
  126   0.0000004   0.0000001   0.0000003   0.0000001   0.0000000  -0.0000002
  127   0.0000009   0.0000011  -0.0000016  -0.0000020  -0.0000009   0.0000007
  128   0.0000014   0.0000023  -0.0000054  -0.0000047  -0.0000029   0.0000013
  129   0.0000010   0.0000001   0.0000014   0.0000003   0.0000002  -0.0000006
  130   0.0000606   0.0000335   0.0000048   0.0000141   0.0000069  -0.0000018
  131   0.0000526   0.0000257   0.0000099   0.0000012   0.0000055  -0.0000065
  132   0.0000283   0.0000091   0.0000238  -0.0000182  -0.0000014  -0.0000078
  133  -0.0000026  -0.0000017   0.0000017  -0.0000016  -0.0000009  -0.0000011
  134  -0.0000004  -0.0000001   0.0000001  -0.0000002  -0.0000002  -0.0000001
  135   0.0000034   0.0000019  -0.0000021   0.0000016   0.0000009   0.0000013
  136   0.0000005   0.0000002  -0.0000000  -0.0000000   0.0000000  -0.0000001
  137   0.0000005   0.0000002  -0.0000000   0.0000001   0.0000001  -0.0000001
  138  -0.0000003  -0.0000001  -0.0000000   0.0000000   0.0000000   0.0000001
  139  -0.0000000  -0.0000000  -0.0000000  -0.0000000  -0.0000000  -0.0000000
  140  -0.0000000  -0.0000000  -0.0000000   0.0000000   0.0000000   0.0000000
  141  -0.0000000   0.0000000  -0.0000000   0.0000000   0.0000000   0.0000000
  142   0.0000011   0.0000002   0.0000009  -0.0000001   0.0000001  -0.0000005
  143   0.0000015   0.0000005   0.0000013   0.0000002   0.0000003  -0.0000004
  144  -0.0000003  -0.0000001  -0.0000001   0.0000001   0.0000000   0.0000001
  145   0.0000225   0.0000076   0.0000130  -0.0000034   0.0000012  -0.0000052
  146  -0.0000113  -0.0000083   0.0000048   0.0000062   0.0000031  -0.0000007
  147  -0.0000143  -0.0000061  -0.0000074   0.0000017  -0.0000002   0.0000029
  148  -0.0000007  -0.0000002  -0.0000005   0.0000001  -0.0000000   0.0000002
  149  -0.0000006  -0.0000002  -0.0000005   0.0000001  -0.0000001   0.0000002
  150   0.0000001   0.0000000   0.0000001  -0.0000000  -0.0000000  -0.0000000
  151  -0.0000001  -0.0000000  -0.0000001  -0.0000000  -0.0000000   0.0000000
  152  -0.0000002  -0.0000001  -0.0000001  -0.0000000  -0.0000000   0.0000000
  153   0.0000000   0.0000000   0.0000000   0.0000000   0.0000000  -0.0000000
  154   0.0000001   0.0000000   0.0000001   0.0000001   0.0000000  -0.0000000
  155   0.0000001   0.0000000   0.0000001   0.0000001   0.0000000  -0.0000000
  156  -0.0000000  -0.0000000  -0.0000000  -0.0000000  -0.0000000   0.0000000
  157  -0.0000000  -0.0000001   0.0000019  -0.0000011  -0.0000004  -0.0000002
  158   0.0000001   0.0000000  -0.0000006   0.0000001   0.0000001  -0.0000001
  159   0.0000001   0.0000001  -0.0000005   0.0000002   0.0000000   0.0000001
  160   0.0000000   0.0000000   0.0000000   0.0000000   0.0000000  -0.0000000
  161  -0.0000000  -0.0000000  -0.0000000   0.0000000   0.0000000   0.0000000
  162   0.0000000   0.0000000   0.0000000   0.0000000   0.0000000  -0.0000000
  163  -0.0000004  -0.0000002   0.0000000  -0.0000001  -0.0000001   0.0000000
  164  -0.0000004  -0.0000002  -0.0000000  -0.0000001  -0.0000000   0.0000000
  165   0.0000001   0.0000000  -0.0000000   0.0000001   0.0000000   0.0000000
  166   0.0000008  -0.0000001   0.0000005  -0.0000019  -0.0000003  -0.0000003
  167   0.0000007   0.0000001   0.0000006  -0.0000003  -0.0000002  -0.0000002
  168   0.0000012   0.0000002   0.0000007  -0.0000034  -0.0000007  -0.0000007
            7           8           9          10          11          12
    1  -0.0001654  -0.0000601  -0.0001680   0.0001117   0.0000157  -0.0000091
    2  -0.0000794  -0.0000209  -0.0000707   0.0000244  -0.0000056   0.0000065
    3  -0.0000622  -0.0000185  -0.0000607   0.0000628   0.0000168  -0.0000115
    4   0.0006010   0.0003274  -0.0006809  -0.0000716  -0.0001316   0.0001107
    5   0.0002132   0.0001170  -0.0001758  -0.0000082  -0.0000359   0.0000228
    6  -0.0001021  -0.0000282  -0.0000464  -0.0000070  -0.0000246   0.0000151
    7  -0.0060841  -0.0022718  -0.0021277   0.0003257  -0.0001643   0.0001801
    8  -0.0022718  -0.0010863  -0.0007430   0.0000865   0.0000244   0.0000043
    9  -0.0021277  -0.0007430  -0.0018126  -0.0000167  -0.0002305   0.0002266
   10   0.0003257   0.0000865  -0.0000167  -0.0005675  -0.0001410   0.0000123
   11  -0.0001643   0.0000244  -0.0002305  -0.0001410  -0.0004487   0.0003500
   12   0.0001801   0.0000043   0.0002266   0.0000123   0.0003500  -0.0003295
   13  -0.0001047  -0.0000241  -0.0000833  -0.0000033  -0.0001198   0.0001073
   14  -0.0000697  -0.0000313  -0.0000225  -0.0000747   0.0001306  -0.0001189
   15  -0.0000144   0.0000070  -0.0000305   0.0000478  -0.0001442   0.0001349
   16   0.0000680   0.0000233   0.0000146  -0.0000316  -0.0000383   0.0000307
   17   0.0000451   0.0000155   0.0000183  -0.0000200  -0.0000128   0.0000080
   18   0.0000199   0.0000070  -0.0000025  -0.0000116  -0.0000185   0.0000167
   19   0.0000074   0.0000065   0.0000140  -0.0000046   0.0000049  -0.0000057
   20   0.0000166   0.0000068   0.0000101  -0.0000003   0.0000057  -0.0000059
   21   0.0000043   0.0000059   0.0000006   0.0000017  -0.0000013   0.0000019
   22   0.0000037   0.0000044   0.0000020   0.0000116   0.0000033  -0.0000015
   23  -0.0000085  -0.0000031   0.0000011   0.0000010   0.0000017  -0.0000012
   24  -0.0000055  -0.0000036   0.0000014  -0.0000038   0.0000017  -0.0000032
   25   0.0000511   0.0000207   0.0000243  -0.0000075   0.0000078  -0.0000061
   26   0.0000322   0.0000120   0.0000163  -0.0000060   0.0000045  -0.0000040
   27   0.0000123   0.0000047   0.0000033  -0.0000012   0.0000014  -0.0000011
   28  -0.0000090  -0.0000028  -0.0000060   0.0000085  -0.0000017   0.0000018
   29   0.0000058   0.0000002   0.0000069  -0.0000001   0.0000084  -0.0000069
   30  -0.0000044  -0.0000006  -0.0000052   0.0000034  -0.0000053   0.0000054
   31   0.0000393   0.0000157   0.0000147   0.0000057   0.0000092  -0.0000090
   32   0.0000096   0.0000039   0.0000033   0.0000003  -0.0000003  -0.0000002
   33   0.0000175   0.0000058   0.0000069   0.0000032   0.0000044  -0.0000042
   34  -0.0000171  -0.0000066  -0.0000055   0.0000019   0.0000001   0.0000011
   35   0.0000093   0.0000037   0.0000028  -0.0000008  -0.0000003  -0.0000004
   36  -0.0000157  -0.0000060  -0.0000049   0.0000009  -0.0000004   0.0000013
   37   0.0000006  -0.0000000   0.0000031   0.0000021   0.0000017  -0.0000013
   38   0.0000006   0.0000004  -0.0000012  -0.0000015  -0.0000012   0.0000009
   39  -0.0000030  -0.0000018   0.0000048   0.0000061   0.0000042  -0.0000030
   40   0.0000969   0.0000308   0.0000177  -0.0000044   0.0000098  -0.0000051
   41   0.0000616   0.0000191   0.0000412  -0.0000036   0.0000043  -0.0000047
   42   0.0000903   0.0000548   0.0000293  -0.0000089  -0.0000058   0.0000017
   43   0.0016230  -0.0000829   0.0015657   0.0005165   0.0011293  -0.0009501
   44   0.0009744   0.0004554   0.0009458   0.0002007   0.0005827  -0.0004943
   45   0.0026535   0.0009351   0.0021246  -0.0000744   0.0001488  -0.0001425
   46  -0.0006853   0.0001240   0.0005547  -0.0013165  -0.0000127   0.0005163
   47   0.0184677   0.0081564   0.0051331  -0.0012200  -0.0013065   0.0006589
   48  -0.0151767  -0.0064234  -0.0038293   0.0006137   0.0010634  -0.0003909
   49  -0.0016235  -0.0009028  -0.0002447   0.0010671   0.0001448  -0.0000625
   50  -0.0014067  -0.0006645  -0.0005498   0.0009035   0.0001148  -0.0000114
   51   0.0004205   0.0001183  -0.0000046  -0.0001500  -0.0001035   0.0000824
   52  -0.0006888  -0.0002913  -0.0001344   0.0001313   0.0001190  -0.0001166
   53  -0.0007221  -0.0003232  -0.0000352  -0.0001006   0.0001289  -0.0001526
   54   0.0001127   0.0001044   0.0000055  -0.0000368  -0.0001268   0.0001177
   55  -0.0001360  -0.0000908  -0.0000578   0.0000719   0.0000214  -0.0000190
   56  -0.0001536  -0.0001220   0.0000178   0.0001028   0.0000266  -0.0000185
   57  -0.0000510  -0.0000355  -0.0000635  -0.0000412  -0.0000102   0.0000031
   58   0.0001484   0.0001415   0.0000911  -0.0003173   0.0000814  -0.0001280
   59   0.0002014   0.0000671   0.0000592  -0.0001284   0.0000044  -0.0000253
   60  -0.0001585  -0.0000410  -0.0000699   0.0000193   0.0000066  -0.0000019
   61  -0.0000538  -0.0000355   0.0000666   0.0000702   0.0001076  -0.0000985
   62  -0.0001350  -0.0000629  -0.0000120   0.0000191   0.0000134  -0.0000157
   63  -0.0000484  -0.0000199   0.0000171   0.0000209   0.0000322  -0.0000301
   64  -0.0002293  -0.0000133  -0.0002511   0.0000300  -0.0002691   0.0002696
   65  -0.0002175  -0.0000371  -0.0001845   0.0000473  -0.0001829   0.0001921
   66   0.0001329   0.0000299   0.0000934  -0.0000459   0.0000795  -0.0000893
   67   0.0001733   0.0000754   0.0000440  -0.0000600  -0.0000370   0.0000362
   68   0.0001239   0.0000660   0.0000214  -0.0000205  -0.0000203   0.0000176
   69  -0.0000560  -0.0000408  -0.0000098   0.0000198   0.0000098  -0.0000104
   70  -0.0000422  -0.0000166  -0.0000116   0.0000091  -0.0000013   0.0000012
   71  -0.0000199  -0.0000078  -0.0000042   0.0000064  -0.0000042   0.0000028
   72   0.0000116   0.0000088  -0.0000046   0.0000000  -0.0000034   0.0000028
   73   0.0000215   0.0000216   0.0000199  -0.0000206   0.0000512  -0.0000495
   74  -0.0000346  -0.0000342  -0.0000133   0.0000415  -0.0000624   0.0000593
   75   0.0000390   0.0000330   0.0000260  -0.0000341   0.0000667  -0.0000649
   76   0.0039556   0.0020943   0.0007939   0.0001179  -0.0004773  -0.0000204
   77  -0.0080649  -0.0042174  -0.0009405   0.0002860   0.0007078  -0.0003642
   78   0.0080334   0.0038796   0.0007094  -0.0002431  -0.0006899   0.0002980
   79   0.0008912   0.0000096   0.0005815   0.0001885  -0.0005732   0.0005240
   80  -0.0033566  -0.0007555  -0.0028661  -0.0004473   0.0006941  -0.0005576
   81   0.0018354   0.0002031   0.0012601   0.0003019  -0.0007934   0.0007493
   82   0.0007560   0.0004389  -0.0004982  -0.0004087   0.0005417  -0.0005158
   83  -0.0019399  -0.0010628  -0.0001497   0.0006096  -0.0007646   0.0008086
   84   0.0026016   0.0014620   0.0010474  -0.0005888   0.0007729  -0.0009152
   85   0.0008982   0.0001779   0.0004609   0.0001703  -0.0002614   0.0002617
   86  -0.0012554  -0.0003595  -0.0006329  -0.0002058   0.0004067  -0.0003833
   87   0.0011771   0.0002536   0.0006693   0.0002264  -0.0004294   0.0003678
   88   0.0001254   0.0000362   0.0000499   0.0000016  -0.0000136   0.0000086
   89  -0.0001646  -0.0000443  -0.0000610  -0.0000021   0.0000190  -0.0000126
   90   0.0001900   0.0000516   0.0000760   0.0000021  -0.0000203   0.0000117
   91   0.0005340   0.0003502   0.0000167  -0.0000041  -0.0000971   0.0000391
   92  -0.0008304  -0.0003901   0.0000969  -0.0000082   0.0001097  -0.0000661
   93   0.0010409   0.0004734  -0.0000142  -0.0000055  -0.0001147   0.0000665
   94   0.0000907   0.0000104   0.0000190   0.0000005  -0.0000061   0.0000031
   95  -0.0001363  -0.0000137  -0.0000263  -0.0000003   0.0000090  -0.0000044
   96   0.0001181   0.0000107   0.0000184   0.0000002  -0.0000087   0.0000055
   97  -0.0005174  -0.0002214   0.0001139  -0.0000104   0.0001182  -0.0001714
   98   0.0009050   0.0003244   0.0003726   0.0000978  -0.0001911   0.0001274
   99  -0.0009350  -0.0003625  -0.0003385  -0.0000832   0.0002071  -0.0001381
  100  -0.0000015  -0.0000063  -0.0000026   0.0000180  -0.0000266   0.0000260
  101  -0.0000014   0.0000077   0.0000033  -0.0000239   0.0000395  -0.0000379
  102  -0.0000024  -0.0000086  -0.0000031   0.0000264  -0.0000388   0.0000379
  103  -0.0000220   0.0000013  -0.0000566  -0.0000073   0.0000113  -0.0000110
  104   0.0000237  -0.0000049   0.0000752   0.0000104  -0.0000163   0.0000162
  105  -0.0000145   0.0000087  -0.0000691  -0.0000098   0.0000167  -0.0000171
  106  -0.0000608   0.0000302  -0.0002946  -0.0000281  -0.0000041   0.0000894
  107  -0.0000500  -0.0000336  -0.0000500  -0.0000248   0.0000365  -0.0000237
  108   0.0000908   0.0000396   0.0002180   0.0000421  -0.0000456  -0.0000018
  109   0.0000067   0.0000009   0.0000151   0.0000032  -0.0000054   0.0000055
  110  -0.0000123  -0.0000015  -0.0000252  -0.0000051   0.0000078  -0.0000075
  111   0.0000093   0.0000013   0.0000215   0.0000048  -0.0000079   0.0000081
  112   0.0000355   0.0000045   0.0001505   0.0000028   0.0000085  -0.0000484
  113  -0.0000003  -0.0000050  -0.0000385   0.0000111  -0.0000242   0.0000396
  114  -0.0000717   0.0000069  -0.0002066  -0.0000381   0.0000383   0.0000033
  115   0.0000000  -0.0000002  -0.0000003   0.0000006  -0.0000002   0.0000002
  116  -0.0000091  -0.0000037  -0.0000029   0.0000023  -0.0000010   0.0000009
  117   0.0000048   0.0000020   0.0000015  -0.0000014   0.0000005  -0.0000005
  118   0.0000027   0.0000012   0.0000018  -0.0000010   0.0000001  -0.0000002
  119   0.0000027   0.0000009   0.0000019  -0.0000010   0.0000001  -0.0000001
  120  -0.0000020  -0.0000007  -0.0000012   0.0000007  -0.0000002   0.0000002
  121  -0.0000424  -0.0000173  -0.0000154   0.0000112  -0.0000029   0.0000027
  122   0.0000012   0.0000008  -0.0000023   0.0000003   0.0000010  -0.0000008
  123   0.0000030   0.0000013   0.0000006  -0.0000010   0.0000009  -0.0000007
  124  -0.0000006  -0.0000003  -0.0000006   0.0000002  -0.0000000   0.0000000
  125  -0.0000001   0.0000001  -0.0000004   0.0000002  -0.0000000  -0.0000000
  126   0.0000010   0.0000005   0.0000007  -0.0000002   0.0000000  -0.0000001
  127   0.0000004   0.0000004  -0.0000016   0.0000009   0.0000000  -0.0000000
  128  -0.0000018  -0.0000006  -0.0000054   0.0000029   0.0000002   0.0000000
  129   0.0000011   0.0000003   0.0000011  -0.0000006   0.0000001  -0.0000001
  130   0.0000134   0.0000040   0.0000142  -0.0000093  -0.0000033   0.0000021
  131   0.0000152   0.0000051   0.0000122  -0.0000066  -0.0000029   0.0000019
  132   0.0000492   0.0000199   0.0000170  -0.0000115   0.0000053  -0.0000047
  133  -0.0000081  -0.0000029  -0.0000031   0.0000021   0.0000006  -0.0000003
  134  -0.0000017  -0.0000006  -0.0000006   0.0000006   0.0000000   0.0000000
  135   0.0000113   0.0000046   0.0000048  -0.0000026  -0.0000008   0.0000004
  136  -0.0000002  -0.0000000   0.0000001   0.0000001  -0.0000000   0.0000000
  137  -0.0000008  -0.0000004  -0.0000003   0.0000002  -0.0000001   0.0000001
  138   0.0000002   0.0000002   0.0000001  -0.0000001  -0.0000000   0.0000000
  139  -0.0000000  -0.0000000  -0.0000000   0.0000000  -0.0000000   0.0000000
  140   0.0000000  -0.0000000  -0.0000000   0.0000000  -0.0000000   0.0000000
  141  -0.0000001  -0.0000001  -0.0000001   0.0000000  -0.0000000   0.0000000
  142   0.0000005   0.0000001   0.0000005  -0.0000003   0.0000001  -0.0000000
  143   0.0000008   0.0000003   0.0000008  -0.0000005  -0.0000000  -0.0000000
  144  -0.0000009  -0.0000004  -0.0000005   0.0000001  -0.0000000   0.0000001
  145   0.0000177   0.0000066   0.0000099  -0.0000057   0.0000012  -0.0000011
  146  -0.0000004  -0.0000002   0.0000051  -0.0000039  -0.0000001  -0.0000002
  147  -0.0000105  -0.0000040  -0.0000058   0.0000031  -0.0000007   0.0000006
  148  -0.0000003  -0.0000000  -0.0000002   0.0000002  -0.0000000   0.0000000
  149  -0.0000004  -0.0000002  -0.0000004   0.0000002   0.0000000  -0.0000000
  150   0.0000001  -0.0000001  -0.0000000  -0.0000000   0.0000000  -0.0000000
  151   0.0000001   0.0000000   0.0000000   0.0000000  -0.0000000  -0.0000000
  152  -0.0000003  -0.0000001  -0.0000002   0.0000001  -0.0000000   0.0000000
  153  -0.0000000  -0.0000000  -0.0000000  -0.0000000  -0.0000000   0.0000000
  154   0.0000000  -0.0000000   0.0000001  -0.0000000  -0.0000000   0.0000000
  155   0.0000001   0.0000000   0.0000001  -0.0000000  -0.0000000   0.0000000
  156   0.0000001   0.0000001   0.0000000   0.0000000   0.0000000  -0.0000000
  157   0.0000039   0.0000015   0.0000010  -0.0000008   0.0000006  -0.0000005
  158  -0.0000010  -0.0000004  -0.0000003   0.0000002  -0.0000002   0.0000001
  159  -0.0000008  -0.0000003  -0.0000003   0.0000002  -0.0000001   0.0000001
  160   0.0000002   0.0000001   0.0000001  -0.0000000   0.0000000  -0.0000000
  161  -0.0000001  -0.0000001  -0.0000001   0.0000000  -0.0000000   0.0000000
  162   0.0000001   0.0000000   0.0000001  -0.0000000   0.0000000  -0.0000000
  163  -0.0000002  -0.0000001  -0.0000002   0.0000000   0.0000000  -0.0000000
  164  -0.0000003  -0.0000001  -0.0000002   0.0000001   0.0000000   0.0000000
  165  -0.0000002  -0.0000001  -0.0000001  -0.0000000  -0.0000000   0.0000000
  166   0.0000010   0.0000006  -0.0000009  -0.0000012  -0.0000015   0.0000014
  167   0.0000015   0.0000008   0.0000006  -0.0000003  -0.0000004   0.0000005
  168   0.0000016   0.0000010  -0.0000017  -0.0000023  -0.0000022   0.0000018
           13          14          15          16          17          18
    1   0.0000001   0.0000319  -0.0000189   0.0000450   0.0000266   0.0000214
    2  -0.0000028   0.0000121  -0.0000075   0.0000132   0.0000095   0.0000030
    3   0.0000021   0.0000182  -0.0000083   0.0000255   0.0000113   0.0000130
    4  -0.0000375   0.0000529  -0.0000510  -0.0000361  -0.0000098  -0.0000253
    5  -0.0000038   0.0000193  -0.0000144  -0.0000109  -0.0000009  -0.0000063
    6  -0.0000085  -0.0000094  -0.0000008  -0.0000137  -0.0000049  -0.0000073
    7  -0.0001047  -0.0000697  -0.0000144   0.0000680   0.0000451   0.0000199
    8  -0.0000241  -0.0000313   0.0000070   0.0000233   0.0000155   0.0000070
    9  -0.0000833  -0.0000225  -0.0000305   0.0000146   0.0000183  -0.0000025
   10  -0.0000033  -0.0000747   0.0000478  -0.0000316  -0.0000200  -0.0000116
   11  -0.0001198   0.0001306  -0.0001442  -0.0000383  -0.0000128  -0.0000185
   12   0.0001073  -0.0001189   0.0001349   0.0000307   0.0000080   0.0000167
   13  -0.0001358   0.0000443  -0.0000981   0.0000230   0.0000100   0.0000092
   14   0.0000443  -0.0001392   0.0001059   0.0000245   0.0000146   0.0000116
   15  -0.0000981   0.0001059  -0.0001205  -0.0000057  -0.0000026  -0.0000013
   16   0.0000230   0.0000245  -0.0000057  -0.0000512  -0.0000176  -0.0000233
   17   0.0000100   0.0000146  -0.0000026  -0.0000176  -0.0000133  -0.0000058
   18   0.0000092   0.0000116  -0.0000013  -0.0000233  -0.0000058  -0.0000177
   19   0.0000012  -0.0000014   0.0000018   0.0000020  -0.0000003   0.0000014
   20   0.0000012  -0.0000007   0.0000012   0.0000013   0.0000001   0.0000008
   21   0.0000004   0.0000009  -0.0000002   0.0000000   0.0000003  -0.0000006
   22   0.0000021   0.0000029  -0.0000009  -0.0000023  -0.0000005  -0.0000011
   23   0.0000004  -0.0000006   0.0000006  -0.0000000  -0.0000002   0.0000002
   24  -0.0000001  -0.0000015   0.0000008   0.0000014   0.0000003   0.0000010
   25   0.0000020  -0.0000092   0.0000068  -0.0000024   0.0000005  -0.0000026
   26   0.0000008  -0.0000052   0.0000034  -0.0000023  -0.0000009  -0.0000006
   27   0.0000001  -0.0000019   0.0000012  -0.0000004   0.0000008  -0.0000006
   28  -0.0000001   0.0000025  -0.0000014   0.0000004  -0.0000000   0.0000002
   29   0.0000021  -0.0000025   0.0000024   0.0000001   0.0000004   0.0000000
   30  -0.0000013   0.0000023  -0.0000021   0.0000002  -0.0000001   0.0000002
   31   0.0000282   0.0000010   0.0000144   0.0000014  -0.0000001   0.0000001
   32   0.0000063   0.0000023   0.0000019  -0.0000000  -0.0000009   0.0000003
   33   0.0000140   0.0000010   0.0000062  -0.0000002   0.0000001   0.0000001
   34   0.0000048  -0.0000031   0.0000043  -0.0000015  -0.0000000  -0.0000009
   35  -0.0000024   0.0000023  -0.0000023   0.0000008  -0.0000000   0.0000003
   36   0.0000041  -0.0000030   0.0000042  -0.0000012  -0.0000001  -0.0000009
   37   0.0000006  -0.0000002   0.0000004   0.0000010   0.0000005   0.0000009
   38  -0.0000002   0.0000004  -0.0000002  -0.0000006  -0.0000005  -0.0000008
   39   0.0000010  -0.0000006   0.0000012   0.0000031   0.0000009   0.0000026
   40   0.0000042  -0.0000013   0.0000032  -0.0000018  -0.0000011  -0.0000006
   41   0.0000033   0.0000008   0.0000012  -0.0000015  -0.0000008  -0.0000003
   42  -0.0000000   0.0000024  -0.0000015  -0.0000014  -0.0000008  -0.0000007
   43   0.0002750  -0.0001383   0.0002281   0.0000360  -0.0000080   0.0000137
   44   0.0001594  -0.0000828   0.0001359   0.0000007  -0.0000045  -0.0000048
   45   0.0000675   0.0000289   0.0000163  -0.0000207  -0.0000264   0.0000007
   46   0.0005911  -0.0010506   0.0009119  -0.0001215   0.0000734  -0.0000153
   47  -0.0007351   0.0013330  -0.0012444  -0.0001989  -0.0001921  -0.0000187
   48   0.0007909  -0.0013955   0.0012888   0.0001186   0.0001779   0.0000109
   49   0.0001144   0.0001881  -0.0000602   0.0000261  -0.0000017   0.0000220
   50   0.0002268   0.0001000   0.0000468  -0.0000185  -0.0000020  -0.0000010
   51   0.0000004  -0.0000109   0.0000047  -0.0000198  -0.0000058  -0.0000099
   52  -0.0000531   0.0000054  -0.0000292   0.0000468   0.0000083   0.0000189
   53  -0.0001787   0.0000213  -0.0000965   0.0000734   0.0000107   0.0000302
   54   0.0000040   0.0000160  -0.0000078  -0.0000192  -0.0000060  -0.0000091
   55   0.0000017   0.0000046  -0.0000013   0.0000076   0.0000016   0.0000050
   56  -0.0000004   0.0000120  -0.0000071   0.0000077   0.0000009   0.0000051
   57   0.0000020  -0.0000092   0.0000067  -0.0000011   0.0000003  -0.0000006
   58   0.0000632  -0.0000872   0.0000885  -0.0000068   0.0000017  -0.0000068
   59   0.0000201  -0.0000288   0.0000289  -0.0000042  -0.0000010  -0.0000029
   60  -0.0000022   0.0000016  -0.0000024   0.0000014   0.0000014   0.0000004
   61   0.0000241  -0.0000162   0.0000241   0.0000094   0.0000020   0.0000031
   62  -0.0000012   0.0000034  -0.0000032   0.0000025   0.0000004   0.0000010
   63   0.0000092  -0.0000052   0.0000083   0.0000025   0.0000008   0.0000003
   64  -0.0000596   0.0000771  -0.0000850  -0.0000208  -0.0000005  -0.0000081
   65  -0.0000482   0.0000561  -0.0000644  -0.0000111   0.0000011  -0.0000044
   66   0.0000219  -0.0000272   0.0000303   0.0000034  -0.0000013   0.0000015
   67  -0.0000036  -0.0000021  -0.0000006  -0.0000050  -0.0000010  -0.0000015
   68  -0.0000013   0.0000007   0.0000001  -0.0000016   0.0000001  -0.0000007
   69  -0.0000004   0.0000015  -0.0000017   0.0000016  -0.0000000   0.0000009
   70   0.0000023   0.0000050  -0.0000006  -0.0000012  -0.0000010  -0.0000010
   71   0.0000057   0.0000029   0.0000017  -0.0000023  -0.0000008  -0.0000012
   72   0.0000021  -0.0000016   0.0000020  -0.0000004   0.0000001  -0.0000000
   73   0.0000180  -0.0000199   0.0000229   0.0000021  -0.0000001   0.0000008
   74  -0.0000221   0.0000278  -0.0000302  -0.0000021   0.0000002  -0.0000010
   75   0.0000232  -0.0000277   0.0000308   0.0000028  -0.0000000   0.0000012
   76  -0.0005159   0.0007495  -0.0006372   0.0000144  -0.0000923  -0.0000511
   77   0.0004718  -0.0010529   0.0009593   0.0001425   0.0001241  -0.0000063
   78  -0.0005869   0.0010568  -0.0009745  -0.0000923  -0.0001200   0.0000011
   79  -0.0002731   0.0003365  -0.0003781  -0.0000156  -0.0000219   0.0000076
   80   0.0002739  -0.0004880   0.0004040   0.0000411   0.0000558   0.0000446
   81  -0.0003542   0.0004975  -0.0005387  -0.0000341  -0.0000336   0.0000173
   82   0.0002024  -0.0002794   0.0002552   0.0000233   0.0000221   0.0000327
   83  -0.0002919   0.0004105  -0.0004130  -0.0000431  -0.0000198  -0.0000261
   84   0.0002962  -0.0004275   0.0004781   0.0000554   0.0000081  -0.0000104
   85  -0.0001317   0.0002070  -0.0002037  -0.0000121  -0.0000113   0.0000061
   86   0.0001936  -0.0002917   0.0002959   0.0000184   0.0000215  -0.0000043
   87  -0.0002149   0.0002998  -0.0002964  -0.0000112  -0.0000230  -0.0000031
   88  -0.0000085   0.0000128  -0.0000124  -0.0000006  -0.0000006  -0.0000002
   89   0.0000126  -0.0000179   0.0000179   0.0000006   0.0000007   0.0000002
   90  -0.0000124   0.0000186  -0.0000180  -0.0000007  -0.0000008  -0.0000004
   91  -0.0000706   0.0000842  -0.0000969   0.0000002  -0.0000034   0.0000007
   92   0.0000780  -0.0001221   0.0001227   0.0000116   0.0000041   0.0000075
   93  -0.0000663   0.0001240  -0.0001229  -0.0000178  -0.0000063  -0.0000050
   94  -0.0000051   0.0000074  -0.0000073   0.0000001  -0.0000005  -0.0000002
   95   0.0000072  -0.0000107   0.0000104  -0.0000001   0.0000007   0.0000004
   96  -0.0000079   0.0000107  -0.0000110   0.0000002  -0.0000007  -0.0000002
   97   0.0000431  -0.0001027   0.0001393   0.0000186  -0.0000043  -0.0000376
   98  -0.0001048   0.0001377  -0.0001194  -0.0000007  -0.0000100  -0.0000206
   99   0.0000977  -0.0001444   0.0001377   0.0000056   0.0000107   0.0000074
  100  -0.0000097   0.0000141  -0.0000145  -0.0000008   0.0000002  -0.0000004
  101   0.0000144  -0.0000201   0.0000207   0.0000012  -0.0000002   0.0000008
  102  -0.0000138   0.0000206  -0.0000210  -0.0000013   0.0000002  -0.0000007
  103   0.0000052  -0.0000099   0.0000088   0.0000011   0.0000017   0.0000002
  104  -0.0000083   0.0000142  -0.0000131  -0.0000013  -0.0000022  -0.0000001
  105   0.0000095  -0.0000141   0.0000138   0.0000009   0.0000020  -0.0000002
  106   0.0000153   0.0000202  -0.0000636  -0.0000173   0.0000087   0.0000443
  107   0.0000183  -0.0000216   0.0000167   0.0000016   0.0000040   0.0000072
  108  -0.0000331   0.0000219  -0.0000017   0.0000063  -0.0000069  -0.0000223
  109  -0.0000024   0.0000036  -0.0000037  -0.0000002  -0.0000003   0.0000001
  110   0.0000036  -0.0000052   0.0000051   0.0000003   0.0000005   0.0000001
  111  -0.0000034   0.0000052  -0.0000054  -0.0000004  -0.0000005   0.0000001
  112  -0.0000034  -0.0000126   0.0000315   0.0000072  -0.0000032  -0.0000180
  113  -0.0000067   0.0000175  -0.0000250  -0.0000038   0.0000002   0.0000075
  114   0.0000252  -0.0000168  -0.0000030  -0.0000067   0.0000055   0.0000188
  115   0.0000003   0.0000005  -0.0000001  -0.0000001  -0.0000001  -0.0000001
  116   0.0000006   0.0000017  -0.0000007  -0.0000001  -0.0000002   0.0000001
  117  -0.0000004  -0.0000010   0.0000004   0.0000001   0.0000001   0.0000001
  118  -0.0000002  -0.0000006   0.0000002  -0.0000002  -0.0000001  -0.0000001
  119  -0.0000003  -0.0000005   0.0000001  -0.0000003  -0.0000002  -0.0000002
  120   0.0000002   0.0000005  -0.0000002   0.0000000   0.0000000   0.0000001
  121   0.0000027   0.0000060  -0.0000021   0.0000019   0.0000009   0.0000009
  122   0.0000009  -0.0000006   0.0000008   0.0000009   0.0000006   0.0000004
  123   0.0000002  -0.0000010   0.0000009  -0.0000003  -0.0000004  -0.0000002
  124  -0.0000000   0.0000001  -0.0000001   0.0000001   0.0000001   0.0000000
  125   0.0000000   0.0000001  -0.0000001   0.0000001   0.0000001   0.0000000
  126   0.0000000  -0.0000001   0.0000001  -0.0000000  -0.0000000  -0.0000000
  127  -0.0000003   0.0000001  -0.0000003   0.0000005   0.0000004   0.0000002
  128  -0.0000013   0.0000000  -0.0000007   0.0000019   0.0000014   0.0000007
  129  -0.0000000  -0.0000003   0.0000002  -0.0000001  -0.0000001  -0.0000001
  130  -0.0000068  -0.0000001  -0.0000041  -0.0000058  -0.0000024  -0.0000032
  131  -0.0000042   0.0000014  -0.0000030  -0.0000062  -0.0000024  -0.0000038
  132   0.0000004  -0.0000080   0.0000050  -0.0000021  -0.0000009  -0.0000010
  133   0.0000017   0.0000002   0.0000010   0.0000000  -0.0000001   0.0000001
  134   0.0000004   0.0000002  -0.0000000  -0.0000000   0.0000001   0.0000001
  135  -0.0000017  -0.0000003  -0.0000010  -0.0000001   0.0000002  -0.0000001
  136   0.0000000   0.0000001  -0.0000000  -0.0000001  -0.0000000  -0.0000000
  137   0.0000000   0.0000001  -0.0000001  -0.0000000  -0.0000000  -0.0000000
  138   0.0000000  -0.0000000   0.0000000   0.0000000   0.0000000   0.0000000
  139  -0.0000000   0.0000000  -0.0000000   0.0000000   0.0000000   0.0000000
  140  -0.0000000   0.0000000  -0.0000000   0.0000000  -0.0000000   0.0000000
  141  -0.0000000   0.0000000  -0.0000000  -0.0000000  -0.0000000   0.0000000
  142  -0.0000000  -0.0000001   0.0000001  -0.0000001  -0.0000001  -0.0000000
  143  -0.0000000  -0.0000002   0.0000001  -0.0000002  -0.0000001  -0.0000001
  144  -0.0000000   0.0000000  -0.0000000   0.0000000   0.0000000   0.0000000
  145  -0.0000006  -0.0000030   0.0000015  -0.0000017  -0.0000012  -0.0000007
  146   0.0000018  -0.0000007   0.0000015  -0.0000014  -0.0000015  -0.0000002
  147   0.0000010   0.0000020  -0.0000007   0.0000006   0.0000005   0.0000002
  148   0.0000000   0.0000001  -0.0000000   0.0000001   0.0000001   0.0000000
  149  -0.0000000   0.0000001  -0.0000000   0.0000001   0.0000001   0.0000000
  150  -0.0000000  -0.0000000   0.0000000   0.0000000  -0.0000000  -0.0000000
  151   0.0000000   0.0000000  -0.0000000   0.0000000   0.0000000   0.0000000
  152   0.0000000   0.0000000  -0.0000000   0.0000000   0.0000000   0.0000000
  153  -0.0000000  -0.0000000   0.0000000  -0.0000000  -0.0000000  -0.0000000
  154   0.0000000  -0.0000000   0.0000000  -0.0000000  -0.0000000  -0.0000000
  155   0.0000000  -0.0000000   0.0000000  -0.0000000  -0.0000000  -0.0000000
  156  -0.0000000  -0.0000000   0.0000000   0.0000000   0.0000000   0.0000000
  157   0.0000001  -0.0000009   0.0000006   0.0000002   0.0000000   0.0000001
  158   0.0000000   0.0000003  -0.0000002  -0.0000001   0.0000000  -0.0000000
  159  -0.0000000   0.0000002  -0.0000002  -0.0000001  -0.0000000  -0.0000000
  160   0.0000000   0.0000000   0.0000000  -0.0000000   0.0000000  -0.0000000
  161  -0.0000000   0.0000000  -0.0000000  -0.0000000  -0.0000000   0.0000000
  162   0.0000000  -0.0000000   0.0000000  -0.0000000   0.0000000  -0.0000000
  163   0.0000000  -0.0000000   0.0000000   0.0000000   0.0000000   0.0000000
  164   0.0000000   0.0000000   0.0000000   0.0000000   0.0000000   0.0000000
  165  -0.0000000   0.0000000  -0.0000000  -0.0000000  -0.0000000  -0.0000000
  166  -0.0000008   0.0000005  -0.0000007   0.0000000  -0.0000003   0.0000001
  167   0.0000001   0.0000001  -0.0000002  -0.0000005   0.0000001  -0.0000004
  168  -0.0000008   0.0000003  -0.0000007  -0.0000006  -0.0000005   0.0000003
           19          20          21          22          23          24
    1  -0.0000015  -0.0000018  -0.0000034  -0.0000120  -0.0000021   0.0000016
    2  -0.0000008  -0.0000020  -0.0000015  -0.0000049  -0.0000003   0.0000019
    3   0.0000001   0.0000009  -0.0000014  -0.0000040  -0.0000003   0.0000007
    4   0.0000497   0.0000148   0.0000026   0.0000357   0.0000146   0.0000060
    5   0.0000125   0.0000065  -0.0000010   0.0000022   0.0000052   0.0000019
    6   0.0000085   0.0000030   0.0000049   0.0000111   0.0000022   0.0000012
    7   0.0000074   0.0000166   0.0000043   0.0000037  -0.0000085  -0.0000055
    8   0.0000065   0.0000068   0.0000059   0.0000044  -0.0000031  -0.0000036
    9   0.0000140   0.0000101   0.0000006   0.0000020   0.0000011   0.0000014
   10  -0.0000046  -0.0000003   0.0000017   0.0000116   0.0000010  -0.0000038
   11   0.0000049   0.0000057  -0.0000013   0.0000033   0.0000017   0.0000017
   12  -0.0000057  -0.0000059   0.0000019  -0.0000015  -0.0000012  -0.0000032
[...]
   35      H       6.5909152989    -0.0062415764    -1.6699960564
   36      C       7.6662157357     2.0936492159    -0.3401035882
   37      H       7.9364327781     2.9349038850     0.3010206212
   38      O       8.4193176442     1.7246081728    -1.2149733165
   39      C      -4.0045513835     0.5609992987     1.4831984292
   40      C      -5.0954279395     1.0960555432     0.7518503491
   41      C      -3.0757508983    -0.2288243199     0.8859021221
   42      C      -6.0822799329     1.9250076651     1.3470798103
   43      C      -5.1927546747     0.7850451633    -0.6158677319
   44      C      -3.1554532305    -0.5557137842    -0.5000249641
   45      H      -2.2704117252    -0.6097852737     1.4810146125
   46      C      -7.1111613411     2.4152674716     0.6082901259
   47      H      -6.0029894963     2.1596527095     2.3946769291
   48      C      -6.2799270270     1.3116587556    -1.3633355075
   49      C      -4.2043790032    -0.0451190582    -1.2073865490
   50      C      -7.2107714395     2.1029052918    -0.7696358474
   51      H      -7.8559830830     3.0429484869     1.0646978641
   52      H      -6.3557952334     1.0741765287    -2.4104550395
   53      H      -4.3013982310    -0.2711078586    -2.2558559838
   54      H      -8.0305689056     2.4974623138    -1.3436723331
   55      H      -3.9189750252     0.7897687981     2.5318079443
   56      H      -1.6266270170    -3.4925734436    -1.4753194335
 ----------------------------------------------------------------
 Nuclear Repulsion Energy =  2352.9929580068 hartrees
 There are       99 alpha and       99 beta electrons
 Requested basis set is 6-31G(d,p)
 There are 196 shells and 560 basis functions

Total QAlloc Memory Limit  20000 MB
Mega-Array Size      4888 MB
MEM_STATIC part      5000 MB
 A cutoff of  1.0D-12 yielded   9727 shell pairs
 There are     79465 function pairs
 Smallest overlap matrix eigenvalue = 2.64E-04

  Scale SEOQF with 1.000000e-02/1.000000e-01/1.000000e-01

 Standard Electronic Orientation quadrupole field applied
 Nucleus-field energy     =     0.0000000314 hartrees
 Guess MOs from SCF MO coefficient file
Reading MOs from coefficient file
Reading MOs from coefficient file
 A restricted Hartree-Fock SCF calculation will be
 performed using Pulay DIIS extrapolation
 SCF converges when DIIS error is below 1.0E-10
 ---------------------------------------
  Cycle       Energy         DIIS Error
 ---------------------------------------
    1   -1113.6843964499      1.92E-08
    2   -1113.6843964282      2.85E-09
    3   -1113.6843964280      9.12E-10
    4   -1113.6843964280      3.88E-10
    5   -1113.6843964281      1.27E-10
    6   -1113.6843964285      4.80E-11 Convergence criterion met
 ---------------------------------------
 SCF time:  CPU 247.57 s  wall 247.95 s
 SCF   energy in the final basis set = -1113.6843964285
 Total energy in the final basis set = -1113.6843964285
 Direct RCIS calculation will be performed
 Triplet excitation energies requested
 CIS energy converged when residual is below 10e-10
 ---------------------------------------------------
 Iter    Rts Conv    Rts Left    Ttl Dev     Max Dev
 ---------------------------------------------------
   1         0           2      0.000156    0.000111
   2         0           2      0.000369    0.000321
   3         0           2      0.000405    0.000284
   4         0           2      0.000282    0.000216
   5         0           2      0.000159    0.000130
   6         0           2      0.000074    0.000065
   7         0           2      0.000035    0.000033
   8         0           2      0.000016    0.000014
   9         0           2      0.000006    0.000005
  10         0           2      0.000002    0.000002
  11         0           2      0.000001    0.000001
  12         0           2      0.000000    0.000000
  13         0           2      0.000000    0.000000
  14         0           2      0.000000    0.000000
  15         0           2      0.000000    0.000000
  16         0           2      0.000000    0.000000
  17         0           2      0.000000    0.000000
  18         0           2      0.000000    0.000000
  19         0           2      0.000000    0.000000
  20         1           1      0.000000    0.000000
  21         1           1      0.000000    0.000000
  22         2           0      0.000000    0.000000    Roots Converged
 ---------------------------------------------------
 
 
 ---------------------------------------------------
               CIS Excitation Energies              
 ---------------------------------------------------

 Excited state   1: excitation energy (eV) =    2.5575
    Total energy for state   1:  -1113.590408595838
    Multiplicity: Triplet 
    Trans. Mom.:  0.0000 X   0.0000 Y   0.0000 Z
    Strength   :  0.0000
    D( 96) --> V(  4) amplitude = -0.2877
    D( 97) --> V(  1) amplitude = -0.8869

 Excited state   2: excitation energy (eV) =    2.7697
    Total energy for state   2:  -1113.582613021897
    Multiplicity: Triplet 
    Trans. Mom.:  0.0000 X   0.0000 Y   0.0000 Z
    Strength   :  0.0000
    D( 95) --> V(  5) amplitude = -0.3223
    D( 98) --> V(  3) amplitude = -0.3637
    D( 99) --> V(  2) amplitude =  0.8061
 
 ---------------------------------------------------
  Timing summary (seconds)
  CPU time       3175.46s
  System time       0.00s
  Wall time      3180.89s


 Entering the ER Localization Code for CIS excited states. 

NOTE: THIS HAS BEEN ONLY PARTIALLY TESTED FOR THE CASE THAT WE HAVE UNRESTRICTED ORBITALS.
INITIAL CENTER1 LOCATIONS: state 0  Occ x 10.444 y  1.872 z  0.067 Virt x 10.380 y  1.841 z  0.081
INITIAL CENTER1 LOCATIONS: state 1  Occ x -9.708 y  1.758 z  0.087 Virt x -9.688 y  1.755 z  0.124
INITIAL CENTER2 LOCATIONS: state 0  Occ x 117.799 y  6.809 z  3.058 Virt x 116.899 y  7.419 z  3.442
INITIAL CENTER2 LOCATIONS: state 1  Occ x 103.159 y  8.395 z  5.451 Virt x 103.550 y  8.623 z  5.475
INITIAL STANDARD DEVIATIONS: state 0  Occ x  2.952 y  1.818 z  1.747 Virt x  3.024 y  2.007 z  1.854
INITIAL STANDARD DEVIATIONS: state 1  Occ x  2.987 y  2.303 z  2.333 Virt x  3.115 y  2.354 z  2.337
INITIAL : state 0 sum of square of distances to other adiabatic states Occ 406.111067 Virt 402.733847
INITIAL : state 1 sum of square of distances to other adiabatic states Occ 406.111067 Virt 402.733847



Calling Random Orthogonal Matrix...
RandomSeed = 25
location random matrix in checkantisymmetry: max_diff = 0.000000e+00
location random matrix in checkunitary: max_diff = 0.000000e+00
 initially ruedvalue =    1.02143402691241     
showmatrix initial R-Matrix(0,0) =   0.5517560317
showmatrix initial R-Matrix(1,0) =   0.0033452341
showmatrix initial R-Matrix(0,1) =  -0.0040929904
showmatrix initial R-Matrix(1,1) =   0.4696779952
JacSwp  rnd     1 max_diff -9.999000e+03 ruedval     1.0215693811
In RUED_JACOBI SWEEPS for DIABATIC STATES, ending in round     1  because max_diff = 5.421011e-19
showmatrix final R-Matrix(0,0) =   0.5518305205
showmatrix final R-Matrix(1,0) =  -0.0000004823
showmatrix final R-Matrix(0,1) =  -0.0000004823
showmatrix final R-Matrix(1,1) =   0.4697388606
showmatrix final adiabatic -> diabatic RotMatrix(0,0) =   0.9999999518
showmatrix final adiabatic -> diabatic RotMatrix(1,0) =  -0.0003104271
showmatrix final adiabatic -> diabatic RotMatrix(0,1) =   0.0003104271
showmatrix final adiabatic -> diabatic RotMatrix(1,1) =   0.9999999518
location RotMatrix in boys_diabatic_nogs in checkunitary: max_diff = 1.110223e-16
showing H in adiabatic representation: NO coupling elements!!!
showmatrix adiabatH(0,0) =   0.0939878326
showmatrix adiabatH(1,0) =   0.0000000000
showmatrix adiabatH(0,1) =   0.0000000000
showmatrix adiabatH(1,1) =   0.1017834066
getting H in diabatic representation: WITH coupling elements!!!
showmatrix diabatH(0,0) =   0.0939878334
showmatrix diabatH(1,0) =  -0.0000024200
showmatrix diabatH(0,1) =  -0.0000024200
showmatrix diabatH(1,1) =   0.1017834058
FINAL CENTER LOCATIONS Spin Occ : state 0 x 10.444 y  1.872 z  0.067  Virt x 10.380 y  1.841 z  0.081
FINAL CENTER LOCATIONS Spin Occ : state 1 x -9.708 y  1.758 z  0.087  Virt x -9.688 y  1.755 z  0.124
FINAL CENTER2 LOCATIONS: state 0  Occ x 117.799 y  6.809 z  3.058 Virt x 116.899 y  7.419 z  3.442
FINAL CENTER2 LOCATIONS: state 1  Occ x 103.159 y  8.395 z  5.451 Virt x 103.550 y  8.623 z  5.475
FINAL STANDARD DEVIATIONS: state 0  Occ x  2.952 y  1.818 z  1.747 Virt x  3.024 y  2.007 z  1.854
FINAL STANDARD DEVIATIONS: state 1  Occ x  2.987 y  2.303 z  2.333 Virt x  3.115 y  2.354 z  2.337
FINAL: state 0 sum of square of distances to other Centers Occ 406.111223 Virt 402.734000 
FINAL: state 1 sum of square of distances to other Centers Occ 406.111223 Virt 402.734000 



Calculating ER second derivative! Everything should be negative. If so, we are done.
location hessian --max_diff from checksymmetry = 0.000000e+00
eval of hessian: count 0 eval -3.271151
 STSman time:  CPU 0.00 s  wall 0.00 s

 Analysis of SCF Wavefunction
 
 --------------------------------------------------------------
                    Orbital Energies (a.u.)
 --------------------------------------------------------------
 
 Alpha MOs
 -- Occupied --
-20.547 -11.321 -11.271 -11.259 -11.252 -11.247 -11.243 -11.242
-11.241 -11.238 -11.238 -11.236 -11.234 -11.233 -11.233 -11.232
-11.231 -11.230 -11.230 -11.227 -11.227 -11.226 -11.225 -11.225
-11.222 -11.221 -11.221 -11.219  -1.377  -1.178  -1.163  -1.146
 -1.119  -1.090  -1.056  -1.043  -1.034  -1.032  -1.014  -0.993
 -0.981  -0.965  -0.898  -0.869  -0.849  -0.841  -0.832  -0.823
 -0.812  -0.809  -0.779  -0.768  -0.755  -0.703  -0.702  -0.691
 -0.668  -0.661  -0.649  -0.638  -0.635  -0.624  -0.619  -0.608
 -0.607  -0.599  -0.596  -0.595  -0.587  -0.579  -0.578  -0.574
 -0.562  -0.542  -0.537  -0.531  -0.528  -0.522  -0.511  -0.506
 -0.504  -0.498  -0.491  -0.484  -0.481  -0.474  -0.470  -0.465
 -0.458  -0.443  -0.439  -0.417  -0.416  -0.413  -0.379  -0.354
 -0.316  -0.311  -0.286
 -- Virtual --
  0.071   0.101   0.130   0.141   0.188   0.214   0.218   0.221
  0.230   0.242   0.245   0.252   0.259   0.264   0.274   0.276
  0.282   0.292   0.297   0.304   0.310   0.315   0.316   0.322
  0.323   0.327   0.330   0.332   0.338   0.345   0.349   0.352
  0.355   0.359   0.374   0.384   0.389   0.395   0.409   0.411
  0.420   0.423   0.425   0.438   0.440   0.448   0.455   0.466
  0.469   0.479   0.480   0.487   0.492   0.507   0.517   0.520
  0.522   0.534   0.543   0.548   0.564   0.582   0.595   0.663
  0.690   0.697   0.706   0.713   0.722   0.726   0.728   0.732
  0.735   0.738   0.744   0.746   0.751   0.753   0.757   0.764
  0.775   0.777   0.792   0.792   0.797   0.801   0.803   0.805
  0.817   0.820   0.824   0.831   0.839   0.843   0.844   0.852
  0.861   0.865   0.871   0.881   0.885   0.897   0.903   0.907
  0.919   0.924   0.930   0.936   0.945   0.948   0.960   0.970
  0.975   0.985   0.988   0.995   1.010   1.012   1.026   1.032
  1.039   1.046   1.051   1.058   1.062   1.070   1.072   1.077
  1.079   1.082   1.084   1.085   1.091   1.093   1.104   1.104
  1.106   1.114   1.120   1.123   1.130   1.132   1.139   1.148
  1.158   1.161   1.165   1.175   1.184   1.186   1.194   1.199
  1.201   1.205   1.213   1.214   1.218   1.223   1.229   1.230
  1.232   1.238   1.243   1.254   1.268   1.282   1.283   1.308
  1.308   1.320   1.328   1.348   1.366   1.374   1.384   1.391
  1.398   1.417   1.420   1.433   1.446   1.458   1.468   1.484
  1.494   1.501   1.505   1.508   1.534   1.548   1.555   1.573
  1.584   1.594   1.605   1.611   1.624   1.635   1.647   1.653
  1.655   1.661   1.666   1.690   1.690   1.695   1.705   1.706
  1.712   1.722   1.726   1.729   1.762   1.768   1.780   1.788
  1.800   1.809   1.823   1.841   1.864   1.894   1.903   1.927
  1.948   1.964   1.975   1.992   2.017   2.035   2.037   2.045
  2.051   2.054   2.057   2.088   2.095   2.102   2.112   2.114
  2.117   2.130   2.135   2.144   2.149   2.158   2.169   2.171
  2.179   2.183   2.191   2.195   2.197   2.204   2.207   2.216
  2.226   2.226   2.234   2.237   2.241   2.248   2.253   2.260
  2.274   2.278   2.285   2.287   2.298   2.301   2.311   2.316
  2.339   2.340   2.352   2.358   2.371   2.373   2.386   2.399
  2.407   2.411   2.424   2.440   2.449   2.461   2.465   2.470
  2.473   2.478   2.498   2.501   2.510   2.517   2.525   2.532
  2.544   2.554   2.558   2.575   2.581   2.588   2.595   2.602
  2.604   2.621   2.632   2.639   2.653   2.662   2.668   2.672
  2.686   2.689   2.700   2.704   2.711   2.716   2.718   2.728
  2.734   2.742   2.747   2.751   2.757   2.766   2.772   2.785
  2.791   2.794   2.802   2.808   2.828   2.838   2.842   2.845
  2.857   2.865   2.871   2.879   2.889   2.895   2.900   2.910
  2.920   2.922   2.928   2.932   2.942   2.951   2.953   2.954
  2.969   2.983   2.988   2.998   3.004   3.014   3.015   3.037
  3.042   3.047   3.061   3.066   3.076   3.082   3.089   3.100
  3.112   3.137   3.145   3.160   3.164   3.166   3.175   3.183
  3.188   3.195   3.210   3.219   3.223   3.226   3.231   3.242
  3.268   3.282   3.292   3.296   3.305   3.328   3.348   3.354
  3.370   3.374   3.392   3.405   3.432   3.442   3.482   3.523
  3.532   3.558   3.600   3.630   3.631   3.638   3.661   3.664
  3.674   3.693   3.698   3.716   3.728   3.742   3.748   3.775
  3.789   3.805   3.819   3.826   3.872   3.886   3.888   3.890
  3.904   3.922   3.927   3.929   3.968   3.992   4.169   4.202
  4.317   4.364   4.526   4.546   4.571   4.574   4.585   4.606
  4.616   4.635   4.710   4.750   4.776   4.815   4.830   4.856
  4.860   4.898   4.931   4.947   4.975   5.097   5.136   5.194
  5.222   5.255   5.285   5.299   5.386
 --------------------------------------------------------------
 
          Ground-State Mulliken Net Atomic Charges

     Atom                 Charge (a.u.)
  ----------------------------------------
      1 C                    -0.165627
      2 C                    -0.189234
      3 C                    -0.133777
      4 C                    -0.121497
      5 C                    -0.208511
      6 C                    -0.208658
      7 H                     0.108347
      8 H                     0.124578
      9 H                     0.128706
     10 H                     0.104292
     11 H                     0.115730
     12 H                     0.105893
     13 H                     0.125789
     14 H                     0.109991
     15 C                    -0.185076
     16 C                    -0.165744
     17 C                    -0.201433
     18 C                    -0.208461
     19 H                     0.108196
     20 H                     0.125726
     21 H                     0.111096
     22 H                     0.124710
     23 H                     0.118179
     24 H                     0.104778
     25 H                     0.125125
     26 C                     0.026560
     27 C                    -0.174306
     28 C                    -0.154013
     29 C                    -0.109032
     30 H                     0.151114
     31 C                    -0.086482
     32 H                     0.153375
     33 C                    -0.180352
     34 H                     0.164969
     35 H                     0.197123
     36 C                     0.396334
     37 H                     0.106846
     38 O                    -0.539787
     39 C                    -0.128207
     40 C                    -0.040328
     41 C                    -0.153480
     42 C                    -0.124538
     43 C                    -0.024763
     44 C                     0.021316
     45 H                     0.141694
     46 C                    -0.160174
     47 H                     0.151110
     48 C                    -0.127292
     49 C                    -0.164173
     50 C                    -0.157913
     51 H                     0.150184
     52 H                     0.151170
     53 H                     0.146372
     54 H                     0.150497
     55 H                     0.151297
     56 H                     0.111761
  ----------------------------------------
  Sum of atomic charges =     0.000000

 -----------------------------------------------------------------
                    Cartesian Multipole Moments
 -----------------------------------------------------------------
    Charge (ESU x 10^10)
                 0.0000
    Dipole Moment (Debye)
         X      -3.8220      Y      -0.6187      Z       2.1058
       Tot       4.4073
    Quadrupole Moments (Debye-Ang)
        XX    -212.4943     XY      -8.2803     YY    -162.7471
        XZ      18.4889     YZ       9.9337     ZZ    -160.4027
    Octopole Moments (Debye-Ang^2)
       XXX    -504.3643    XXY      19.4072    XYY      28.9389
       YYY       4.8237    XXZ     126.5530    XYZ      39.6762
       YYZ      14.7724    XZZ     -34.0554    YZZ       3.8981
       ZZZ       0.0868
    Hexadecapole Moments (Debye-Ang^3)
      XXXX  -25570.7900   XXXY    -993.0052   XXYY   -3811.0662
      XYYY     145.8890   YYYY   -2895.0661   XXXZ    1369.8299
      XXYZ     423.4999   XYYZ      53.2857   YYYZ      37.2415
      XXZZ   -3724.9553   XYZZ     -58.5618   YYZZ    -680.8801
      XZZZ      -4.6652   YZZZ      33.9966   ZZZZ   -1189.8845
 -----------------------------------------------------------------
Archival summary:
1\1\fermi.chem.uh.edu\SP\HF\6-31G**\12728\xunmo\SatMar107:23:532014SatMar107:23:532014\0\\#,HF,6-31G**,\\0,1\C\H,1,1.0895\C,1,1.53296,2,108.752\H,3,1.08653,1,110.065,2,-59.4295,0\H,3,1.08972,1,107.776,2,-175.109,0\C,1,1.53368,2,107.181,3,-120.118,0\H,6,1.08708,1,109.782,2,60.223,0\H,6,1.08908,1,109.13,2,176.583,0\C,1,1.53713,2,107.936,3,120.331,0\H,9,1.09302,1,107.267,2,179.432,0\C,9,1.53133,1,110.8,2,62.1254,0\H,11,1.08752,9,109.875,1,177.555,0\H,11,1.09004,9,109.2,1,-66.0801,0\C,11,1.53013,9,112.154,1,55.2695,0\H,14,1.08655,11,110.161,9,-177.371,0\H,14,1.08831,11,109.196,9,65.9747,0\C,9,1.53167,1,111.052,2,-63.2193,0\H,17,1.08646,9,109.56,1,68.5148,0\H,17,1.08773,9,109.491,1,-175.815,0\C,17,1.532,9,112.227,1,-54.8692,0\H,20,1.08602,17,110.244,9,175.773,0\H,20,1.08883,17,107.706,9,-68.5466,0\C,14,1.54054,11,111.648,9,-55.3275,0\H,23,1.08915,14,106.995,11,-61.773,0\C,23,1.5111,14,112.656,11,-179.197,0\C,25,1.44372,23,121.964,14,-62.3021,0\H,26,1.07542,25,118.829,23,0.0349329,0\C,26,1.35447,25,122.214,23,-179.958,0\H,28,1.07206,26,121.987,25,-179.996,0\C,25,1.44689,23,120.901,14,117.82,0\H,30,1.07625,25,118.336,23,-0.0343885,0\C,30,1.35526,25,122.195,23,179.958,0\H,32,1.07535,30,120.872,25,180,0\C,32,1.45324,30,120.045,25,-0.0122954,0\C,34,1.4389,32,121.168,30,179.961,0\H,35,1.09168,34,116.443,32,0.0112587,0\O,35,1.21192,34,123.239,32,-179.985,0\C,3,1.54546,1,115.24,2,64.9291,0\H,38,1.08543,3,105.758,1,161.616,0\C,38,1.52621,3,114.239,1,-84.0405,0\C,40,1.3643,38,118.863,3,-110.226,0\H,41,1.07693,40,119.703,38,-0.363692,0\C,41,1.41984,40,122.549,38,179.66,0\C,43,1.40601,41,119.105,40,0.108366,0\C,44,1.41816,43,118.128,41,0.00206957,0\H,45,1.07668,44,118.897,43,179.888,0\C,45,1.35767,44,121.255,43,-0.0704308,0\H,47,1.07138,45,118.472,44,179.947,0\C,44,1.41963,43,119.269,41,179.955,0\H,49,1.07648,44,118.954,43,-179.982,0\C,49,1.35822,44,120.617,43,0.0120815,0\H,51,1.07566,49,120.289,44,179.997,0\C,51,1.41639,49,120.188,44,-0.0152228,0\H,53,1.07576,51,119.461,49,-179.995,0\C,53,1.35832,51,120.364,49,-0.00310622,0\H,55,1.07639,53,120.359,51,-179.989,0\\HF=-1113.6844\\@

 Total job time:  3813.38s(wall), 3806.11s(cpu) 
 Sat Mar  1 07:23:53 2014

        *************************************************************
        *                                                           *
        *  Thank you very much for using Q-Chem.  Have a nice day.  *
        *                                                           *
        *************************************************************


0 sent ACK to 0 
now end server 0 ... 
cleanup process ... done
