
Running Job 1 of 4 INP/d27ee
qchem INP/d27ee_36373.0 /home/qchem_scratch/qchem36373/ 1
/home/QCHEM/bin/mpi/mpirun_qchem -machinefile /home/QCHEM/bin/mpi/machines -np 1 /home/QCHEM/exe/qcprog.exe INP/d27ee_36373.0 /home/qchem_scratch/qchem36373/

Process 0 of 1 is on fermi.chem.uh.edu - thread support 0
initial socket setup ...start
initial socket setup ...done 
now start server 0 ... 
                  Welcome to Q-Chem
     A Quantum Leap Into The Future Of Chemistry

 Y. Shao, L. Fusti-Molnar, Y. Jung, J. Kussmann, C. Ochsenfeld, S. T. Brown, 
 A. T. B. Gilbert, L. V. Slipchenko, S. V. Levchenko, D. P. O'Neill, 
 R. A. DiStasio Jr., R. C. Lochan, T. Wang, G. J. O. Beran, N. A. Besley, 
 J. M. Herbert, C. Y. Lin, T. Van Voorhis, S. H. Chien, A. Sodt, R. P. Steele, 
 V. A. Rassolov, P. E. Maslen, P. P. Korambath, R. D. Adamson, B. Austin, 
 J. Baker, E. F. C. Byrd, H. Dachsel, R. J. Doerksen, A. Dreuw, B. D. Dunietz, 
 A. D. Dutoi, T. R. Furlani, S. R. Gwaltney, A. Heyden, S. Hirata, C.-P. Hsu, 
 G. Kedziora, R. Z. Khaliullin, P. Klunzinger, A. M. Lee, M. S. Lee, W. Liang, 
 I. Lotan, N. Nair, B. Peters, E. I. Proynov, P. A. Pieniazek, Y. M. Rhee, 
 J. Ritchie, E. Rosta, C. D. Sherrill, A. C. Simmonett, J. E. Subotnik, 
 H. L. Woodcock III, W. Zhang, A. T. Bell, A. K. Chakraborty, D. M. Chipman, 
 F. J. Keil, A. Warshel, W. J. Hehre, H. F. Schaefer III, J. Kong, 
 A. I. Krylov, P. M. W. Gill, M. Head-Gordon

 Additional authors for Version 3.1: 
 Z. Gan, Y. Zhao, N. E. Schultz, D. Truhlar, E. Epifanovsky, M. Oana

 Additional authors for Version 3.2: 
 R. Baer, B. R. Brooks, D. Casanova, J.-D. Chai, C.-L. Cheng, C. Cramer, 
 D. Crittenden, A. Ghysels, G. Hawkins, E. G. Hohenstein, C. Kelley, 
 W. Kurlancheek, D. Liotard, E. Livshits, P. Manohar, A. Marenich, 
 D. Neuhauser, R. Olson, M. A. Rohrdanz, K. S. Thanthiriwatte, A. J. W. Thom, 
 V. Vanovschi, C. F. Williams, Q. Wu, Z.-Q. You

 Additional authors for Version 4.0: 
 A. Aspuru-Guzik, Y. Bernard, C. Chang, J. Deng, A. Dreuw, M. Diedenhofen, 
 R. G. Edgar, D. Ghosh, W. A. Goddard III, M. Goldey, L. D. Jacobson, 
 M. Gordon, B. Kaduk, I. Kaliman, K. Khistyaev, R. King, A. Klamt, 
 D. Kosenkov, T. Kus, D. Lambrecht, A. Landau, A. W. Lange, K. Lawler, F. Liu, 
 J. Liu, R. Olivares-Amaya, S. P. Mao, J. Parkhill, N. Russ, M. Schmidt, 
 N. Shenvi, D. Small, Y. C. Su, E. Sundstrom, L. Vogt, O. Vydrov, M. Watson, 
 M. Wormit, X. Xu, S. Yeganeh, I. Y. Zhang, D. Zuev

 Additional authors for Version 4.1: 
 X. Feng, M. W. D. Hanson-Heine, P. Horn, H. Ji, A. Laurent, R. Peverati, 
 N. Mardirossian, N. Sergueev, S. Sharada, P. Zimmerman

 Q-Chem, Version 4.1, Q-Chem, Inc., Pittsburgh, PA (2013).

 Parts of Q-Chem use Armadillo 3.6.2 (Piazza del Duomo).
 http://arma.sourceforge.net/

 Intel X86 Linux Version 4.1.2

 Q-chem begins on Fri Feb 28 08:30:07 2014  

Host: 
0

     Scratch files written to /home/qchem_scratch/qchem36373//
 Feb414 28838_zgan 2267   
 Parallel job on  1  processors
Processing $rem in /home/QCHEM/config/preferences.
 MEM_TOTAL  2000 
Finally everything over in PARseQInput

--------------------------------------------------------------
User input:
--------------------------------------------------------------
$comment
C1,3ea
$end
$molecule
0 1
C      -2.0948673609     1.3450749085    -0.4172015756
C      -0.8614711659     0.4272357606    -0.3706287352
C       0.4485413975     1.2222753469    -0.3369260658
C       0.4657111264     2.2111006600     0.8399870522
C      -0.7607375533     3.1273876837     0.7979388716
C      -2.0693949040     2.3354629036     0.7588171685
H      -0.9154332369    -0.2108132260     0.5098393092
H      -0.8700263280    -0.2357961474    -1.2320789941
H       0.4112121654     1.6248421154     1.7607280408
H      -0.7567993144     3.7886987907     1.6613191560
H      -0.6989136350     3.7680329549    -0.0816853145
H      -2.9157982722     3.0125590907     0.6846990100
H       0.5050022328     1.8086028824    -1.2573596411
C       1.6707611111     0.2979103395    -0.2988029438
C       2.9965169344     1.0832239847    -0.2736123278
C       3.0016051614     2.0811569928     0.9001108811
C       1.7780841725     2.9995149757     0.8662331081
H       1.6075279053    -0.3400526780     0.5814936222
H       1.6590721487    -0.3644957196    -1.1607240264
H       3.0140152440     1.5356978773     1.8418208157
H       3.9135456063     2.6712387213     0.8728465712
H       1.7938153620     3.6625726052     1.7280584175
H       1.8298048221     3.6381403255    -0.0154452298
H       3.0361962222     1.6701716859    -1.1902301560
C       4.2066367243     0.1782556115    -0.2728047088
C       5.1541616664     0.2035451786    -1.3658573952
C       4.4710294341    -0.7433919565     0.8066562226
C       6.2483747135    -0.5956983818    -1.3916501754
H       4.9755845487     0.8831060411    -2.1811199723
C       5.5545245569    -1.5561307373     0.8130834924
H       3.7838628315    -0.7851945992     1.6328380998
C       6.5017736468    -1.5179219398    -0.2973697988
H       6.9390105684    -0.5593306171    -2.2151046809
H       5.7472746935    -2.2392101203     1.6165453316
C       7.6562482408    -2.3767814500    -0.2995149156
H       8.3212029743    -2.2952689019    -1.1614682961
O       7.9041859161    -3.1586507022     0.5926279597
H      -2.1894346801     1.7920486407     1.6937743834
C      -5.4088556245     0.0402687698    -1.7502386584
C      -5.8401399619    -0.8424685824    -0.7285241513
C      -4.2359068083     0.7158112500    -1.6374160550
C      -7.0600988378    -1.5657300395    -0.8115885115
C      -5.0231511974    -1.0023336303     0.4068824092
C      -3.3991926573     0.5661539223    -0.4982892140
H      -3.9285982718     1.3809929945    -2.4259210196
C      -7.4393444321    -2.4023512988     0.1879377694
H      -7.6809013367    -1.4397655455    -1.6819430382
C      -5.4471562659    -1.8855950254     1.4370450801
C      -3.8046941193    -0.2807851097     0.4911255786
C      -6.6180682735    -2.5643841016     1.3314667158
H      -8.3643790142    -2.9468580085     0.1182446311
H      -4.8235360539    -2.0089623011     2.3056973272
H      -3.1977860309    -0.4200517349     1.3693127898
H      -6.9297552274    -3.2304580244     2.1166242098
H      -6.0257463036     0.1702025125    -2.6228821967
H      -2.0188452924     1.9337197926    -1.3300575312
$end


$rem
MEM_TOTAL	20000
MEM_STATIC	5000
JOBTYPE    freq 
SYMMETRY   FALSE
EXCHANGE     	HF
CORRELATION  	none  (built-in)
BASIS       	6-31g** 
cis_state_deriv   1
cis_n_roots       3
cis_singlets      false
cis_triplets      true
max_scf_cycles=100
max_cis_cycles=100
$end

--------------------------------------------------------------
 ----------------------------------------------------------------
             Standard Nuclear Orientation (Angstroms)
    I     Atom           X                Y                Z
 ----------------------------------------------------------------
    1      C      -2.0948673609     1.3450749085    -0.4172015756
    2      C      -0.8614711659     0.4272357606    -0.3706287352
    3      C       0.4485413975     1.2222753469    -0.3369260658
    4      C       0.4657111264     2.2111006600     0.8399870522
    5      C      -0.7607375533     3.1273876837     0.7979388716
    6      C      -2.0693949040     2.3354629036     0.7588171685
    7      H      -0.9154332369    -0.2108132260     0.5098393092
    8      H      -0.8700263280    -0.2357961474    -1.2320789941
    9      H       0.4112121654     1.6248421154     1.7607280408
   10      H      -0.7567993144     3.7886987907     1.6613191560
   11      H      -0.6989136350     3.7680329549    -0.0816853145
   12      H      -2.9157982722     3.0125590907     0.6846990100
   13      H       0.5050022328     1.8086028824    -1.2573596411
   14      C       1.6707611111     0.2979103395    -0.2988029438
   15      C       2.9965169344     1.0832239847    -0.2736123278
   16      C       3.0016051614     2.0811569928     0.9001108811
   17      C       1.7780841725     2.9995149757     0.8662331081
   18      H       1.6075279053    -0.3400526780     0.5814936222
   19      H       1.6590721487    -0.3644957196    -1.1607240264
   20      H       3.0140152440     1.5356978773     1.8418208157
   21      H       3.9135456063     2.6712387213     0.8728465712
   22      H       1.7938153620     3.6625726052     1.7280584175
   23      H       1.8298048221     3.6381403255    -0.0154452298
   24      H       3.0361962222     1.6701716859    -1.1902301560
   25      C       4.2066367243     0.1782556115    -0.2728047088
   26      C       5.1541616664     0.2035451786    -1.3658573952
   27      C       4.4710294341    -0.7433919565     0.8066562226
   28      C       6.2483747135    -0.5956983818    -1.3916501754
   29      H       4.9755845487     0.8831060411    -2.1811199723
   30      C       5.5545245569    -1.5561307373     0.8130834924
   31      H       3.7838628315    -0.7851945992     1.6328380998
   32      C       6.5017736468    -1.5179219398    -0.2973697988
   33      H       6.9390105684    -0.5593306171    -2.2151046809
   34      H       5.7472746935    -2.2392101203     1.6165453316
   35      C       7.6562482408    -2.3767814500    -0.2995149156
   36      H       8.3212029743    -2.2952689019    -1.1614682961
   37      O       7.9041859161    -3.1586507022     0.5926279597
   38      H      -2.1894346801     1.7920486407     1.6937743834
   39      C      -5.4088556245     0.0402687698    -1.7502386584
   40      C      -5.8401399619    -0.8424685824    -0.7285241513
   41      C      -4.2359068083     0.7158112500    -1.6374160550
   42      C      -7.0600988378    -1.5657300395    -0.8115885115
   43      C      -5.0231511974    -1.0023336303     0.4068824092
   44      C      -3.3991926573     0.5661539223    -0.4982892140
   45      H      -3.9285982718     1.3809929945    -2.4259210196
   46      C      -7.4393444321    -2.4023512988     0.1879377694
   47      H      -7.6809013367    -1.4397655455    -1.6819430382
   48      C      -5.4471562659    -1.8855950254     1.4370450801
   49      C      -3.8046941193    -0.2807851097     0.4911255786
   50      C      -6.6180682735    -2.5643841016     1.3314667158
   51      H      -8.3643790142    -2.9468580085     0.1182446311
   52      H      -4.8235360539    -2.0089623011     2.3056973272
   53      H      -3.1977860309    -0.4200517349     1.3693127898
   54      H      -6.9297552274    -3.2304580244     2.1166242098
   55      H      -6.0257463036     0.1702025125    -2.6228821967
   56      H      -2.0188452924     1.9337197926    -1.3300575312
 ----------------------------------------------------------------
 Molecular Point Group                 C1    NOp =  1
 Largest Abelian Subgroup              C1    NOp =  1
 Nuclear Repulsion Energy =  2322.2716433081 hartrees
 There are       99 alpha and       99 beta electrons
 Requested basis set is 6-31G(d,p)
 There are 196 shells and 560 basis functions

Total QAlloc Memory Limit  20000 MB
Mega-Array Size      4888 MB
MEM_STATIC part      5000 MB
 A cutoff of  1.0D-11 yielded   8959 shell pairs
 There are     73410 function pairs
 Smallest overlap matrix eigenvalue = 2.65E-04
 Guess from superposition of atomic densities
 Warning:  Energy on first SCF cycle will be non-variational
 A restricted Hartree-Fock SCF calculation will be
 performed using Pulay DIIS extrapolation
 SCF converges when DIIS error is below 1.0E-08
 ---------------------------------------
  Cycle       Energy         DIIS Error
 ---------------------------------------
    1   -1125.9905569531      3.35E-02
    2   -1113.3303160713      2.58E-03
    3   -1113.6272577671      1.34E-03
    4   -1113.6801962943      5.42E-04
    5   -1113.6916664360      6.13E-05
    6   -1113.6919103443      3.01E-05
    7   -1113.6919797410      1.33E-05
    8   -1113.6919982535      6.05E-06
    9   -1113.6920026185      1.81E-06
   10   -1113.6920030615      7.93E-07
   11   -1113.6920031548      3.97E-07
   12   -1113.6920031875      1.72E-07
   13   -1113.6920031937      6.83E-08
   14   -1113.6920031937      2.09E-08
   15   -1113.6920031932      6.62E-09 Convergence criterion met
 ---------------------------------------
 SCF time:  CPU 668.31 s  wall 673.66 s
 SCF   energy in the final basis set = -1113.6920031932
 Total energy in the final basis set = -1113.6920031932
 Direct RCIS calculation will be performed
 Triplet excitation energies requested
 CIS energy converged when residual is below 10e- 6
 ---------------------------------------------------
 Iter    Rts Conv    Rts Left    Ttl Dev     Max Dev
 ---------------------------------------------------
   1         0           3      0.000572    0.000366
   2         0           3      0.000515    0.000305
   3         0           3      0.000425    0.000202
   4         0           3      0.000221    0.000123
   5         0           3      0.000158    0.000122
   6         0           3      0.000119    0.000109
   7         1           2      0.000052    0.000049
   8         1           2      0.000026    0.000024
   9         2           1      0.000028    0.000027
  10         2           1      0.000091    0.000090
  11         2           1      0.000075    0.000074
  12         2           1      0.000054    0.000053
  13         2           1      0.000045    0.000044
  14         2           1      0.000020    0.000019
  15         2           1      0.000014    0.000013
  16         2           1      0.000013    0.000012
  17         2           1      0.000011    0.000009
  18         2           1      0.000006    0.000005
  19         2           1      0.000003    0.000002
  20         3           0      0.000002    0.000001    Roots Converged
 ---------------------------------------------------
 
 
 ---------------------------------------------------
               CIS Excitation Energies              
 ---------------------------------------------------

 Excited state   1: excitation energy (eV) =    2.5575
    Total energy for state   1:  -1113.598015110399
    Multiplicity: Triplet 
    Trans. Mom.:  0.0000 X   0.0000 Y   0.0000 Z
    Strength   :  0.0000
    D( 96) --> V(  4) amplitude =  0.2877
    D( 97) --> V(  1) amplitude =  0.8774

 Excited state   2: excitation energy (eV) =    2.7404
    Total energy for state   2:  -1113.591295777310
    Multiplicity: Triplet 
    Trans. Mom.:  0.0000 X   0.0000 Y   0.0000 Z
    Strength   :  0.0000
    D( 95) --> V(  5) amplitude = -0.3243
    D( 98) --> V(  3) amplitude = -0.3523
    D( 99) --> V(  2) amplitude =  0.8160

 Excited state   3: excitation energy (eV) =    4.1264
    Total energy for state   3:  -1113.540362370483
    Multiplicity: Triplet 
    Trans. Mom.:  0.0000 X   0.0000 Y   0.0000 Z
    Strength   :  0.0000
    D( 95) --> V(  2) amplitude =  0.6597
    D( 99) --> V(  5) amplitude = -0.6500
 
 ---------------------------------------------------
 Calculating Relaxed Density
 ---------------------------------------------------
 Iter    Rts Conv    Rts Left    Ttl Dev     Max Dev
 ---------------------------------------------------
   1         0           3      0.000233    0.000129
   2         0           3      0.000076    0.000046
   3         0           3      0.000045    0.000033
   4         0           3      0.000014    0.000009
   5         1           2      0.000004    0.000003
   6         2           1      0.000001    0.000001
   7         3           0      0.000000    0.000000    Roots Converged
 ---------------------------------------------------
  Timing summary (seconds)
  CPU time       3113.17s
  System time       0.00s
  Wall time      3115.43s
 STSman time:  CPU 0.00 s  wall 0.00 s

 Analysis of SCF Wavefunction
 
 --------------------------------------------------------------
                    Orbital Energies (a.u.)
 --------------------------------------------------------------
 
 Alpha MOs
 -- Occupied --
-20.547 -11.322 -11.271 -11.259 -11.252 -11.247 -11.243 -11.242
-11.241 -11.238 -11.236 -11.236 -11.232 -11.232 -11.231 -11.231
-11.230 -11.229 -11.229 -11.227 -11.227 -11.227 -11.225 -11.225
-11.222 -11.220 -11.220 -11.219  -1.377  -1.178  -1.163  -1.147
 -1.119  -1.092  -1.056  -1.043  -1.034  -1.032  -1.015  -0.991
 -0.980  -0.963  -0.898  -0.872  -0.848  -0.838  -0.830  -0.822
 -0.814  -0.805  -0.779  -0.767  -0.763  -0.704  -0.699  -0.695
 -0.667  -0.665  -0.649  -0.636  -0.635  -0.620  -0.617  -0.615
 -0.602  -0.602  -0.595  -0.594  -0.584  -0.580  -0.575  -0.570
 -0.563  -0.545  -0.539  -0.533  -0.527  -0.521  -0.509  -0.506
 -0.504  -0.495  -0.489  -0.481  -0.478  -0.477  -0.468  -0.467
 -0.457  -0.454  -0.437  -0.417  -0.416  -0.413  -0.378  -0.355
 -0.316  -0.310  -0.285
 -- Virtual --
  0.071   0.101   0.132   0.141   0.189   0.216   0.220   0.224
  0.233   0.238   0.246   0.248   0.253   0.265   0.268   0.278
  0.287   0.290   0.300   0.302   0.311   0.313   0.317   0.319
  0.321   0.325   0.330   0.332   0.335   0.341   0.350   0.353
  0.355   0.357   0.368   0.376   0.389   0.399   0.400   0.409
  0.415   0.423   0.427   0.434   0.440   0.448   0.454   0.465
  0.466   0.478   0.485   0.486   0.491   0.499   0.509   0.517
  0.531   0.536   0.546   0.559   0.573   0.582   0.595   0.668
  0.688   0.696   0.708   0.714   0.717   0.722   0.728   0.731
  0.734   0.741   0.742   0.745   0.750   0.753   0.756   0.764
  0.768   0.780   0.782   0.786   0.796   0.798   0.801   0.808
  0.815   0.819   0.822   0.830   0.835   0.845   0.848   0.855
  0.865   0.866   0.876   0.879   0.885   0.902   0.907   0.918
  0.922   0.926   0.934   0.939   0.946   0.948   0.954   0.968
  0.973   0.980   0.985   1.003   1.005   1.016   1.027   1.034
  1.040   1.043   1.048   1.060   1.067   1.069   1.071   1.074
  1.078   1.081   1.082   1.084   1.090   1.096   1.096   1.104
  1.107   1.114   1.116   1.123   1.130   1.133   1.136   1.149
  1.157   1.158   1.165   1.172   1.183   1.184   1.188   1.194
  1.194   1.199   1.209   1.213   1.217   1.223   1.225   1.229
  1.232   1.236   1.250   1.253   1.264   1.280   1.283   1.296
  1.308   1.310   1.333   1.353   1.360   1.380   1.388   1.402
  1.409   1.418   1.433   1.439   1.447   1.459   1.478   1.483
  1.490   1.503   1.510   1.520   1.530   1.549   1.558   1.571
  1.594   1.600   1.607   1.617   1.628   1.638   1.647   1.653
  1.655   1.661   1.671   1.675   1.690   1.695   1.700   1.703
  1.715   1.717   1.721   1.735   1.767   1.769   1.781   1.791
  1.801   1.815   1.824   1.836   1.849   1.888   1.913   1.927
  1.932   1.950   1.969   1.996   2.013   2.021   2.036   2.049
  2.051   2.054   2.073   2.083   2.093   2.105   2.108   2.111
  2.113   2.136   2.140   2.142   2.146   2.156   2.166   2.172
  2.175   2.183   2.187   2.190   2.195   2.206   2.209   2.216
  2.225   2.226   2.232   2.238   2.241   2.245   2.249   2.263
  2.270   2.274   2.280   2.287   2.289   2.302   2.309   2.319
  2.325   2.337   2.341   2.353   2.368   2.374   2.382   2.396
  2.404   2.415   2.430   2.437   2.441   2.444   2.453   2.462
  2.465   2.484   2.494   2.508   2.511   2.515   2.525   2.538
  2.550   2.556   2.575   2.586   2.588   2.595   2.597   2.613
  2.617   2.627   2.633   2.637   2.658   2.662   2.665   2.676
  2.678   2.690   2.696   2.704   2.711   2.714   2.716   2.733
  2.739   2.741   2.744   2.751   2.760   2.775   2.778   2.784
  2.791   2.792   2.803   2.812   2.824   2.829   2.840   2.845
  2.848   2.859   2.876   2.888   2.892   2.894   2.897   2.907
  2.911   2.925   2.929   2.932   2.948   2.953   2.958   2.964
  2.971   2.975   2.993   3.000   3.010   3.014   3.033   3.041
  3.047   3.057   3.059   3.070   3.084   3.089   3.098   3.109
  3.116   3.128   3.151   3.158   3.168   3.172   3.186   3.188
  3.194   3.195   3.211   3.213   3.217   3.230   3.242   3.246
  3.262   3.279   3.291   3.298   3.321   3.332   3.346   3.359
  3.368   3.383   3.408   3.423   3.441   3.444   3.479   3.523
  3.540   3.552   3.591   3.632   3.632   3.637   3.648   3.661
  3.662   3.689   3.695   3.705   3.717   3.732   3.735   3.766
  3.795   3.803   3.807   3.826   3.866   3.876   3.888   3.891
  3.917   3.924   3.928   3.932   3.981   3.991   4.172   4.202
  4.317   4.363   4.526   4.547   4.572   4.576   4.585   4.603
  4.617   4.659   4.717   4.750   4.770   4.810   4.839   4.853
  4.863   4.891   4.928   4.940   4.949   5.096   5.136   5.193
  5.233   5.258   5.285   5.292   5.383
 --------------------------------------------------------------
 
          Ground-State Mulliken Net Atomic Charges

     Atom                 Charge (a.u.)
  ----------------------------------------
      1 C                    -0.154264
      2 C                    -0.180387
      3 C                    -0.135422
      4 C                    -0.120505
      5 C                    -0.209385
      6 C                    -0.197305
      7 H                     0.106057
      8 H                     0.122439
      9 H                     0.104653
     10 H                     0.115467
     11 H                     0.105828
     12 H                     0.123034
     13 H                     0.106070
     14 C                    -0.184330
     15 C                    -0.165832
     16 C                    -0.201595
     17 C                    -0.208984
     18 H                     0.109082
     19 H                     0.124556
     20 H                     0.110988
     21 H                     0.124788
     22 H                     0.118018
     23 H                     0.107045
     24 H                     0.125038
     25 C                     0.026643
     26 C                    -0.174440
     27 C                    -0.153816
     28 C                    -0.109055
     29 H                     0.150794
     30 C                    -0.086420
     31 H                     0.153422
     32 C                    -0.180303
     33 H                     0.164911
     34 H                     0.197254
     35 C                     0.396341
     36 H                     0.106832
     37 O                    -0.539633
     38 H                     0.107470
     39 C                    -0.124469
     40 C                    -0.040263
     41 C                    -0.168083
     42 C                    -0.124281
     43 C                    -0.029872
     44 C                    -0.001205
     45 H                     0.146095
     46 C                    -0.160592
     47 H                     0.151230
     48 C                    -0.127036
     49 C                    -0.135434
     50 C                    -0.158002
     51 H                     0.150011
     52 H                     0.149829
     53 H                     0.146674
     54 H                     0.150216
     55 H                     0.152358
     56 H                     0.117772
  ----------------------------------------
  Sum of atomic charges =     0.000000

 -----------------------------------------------------------------
                    Cartesian Multipole Moments
 -----------------------------------------------------------------
    Charge (ESU x 10^10)
                 0.0000
    Dipole Moment (Debye)
         X      -2.5466      Y       3.3663      Z      -1.8000
       Tot       4.5888
    Quadrupole Moments (Debye-Ang)
        XX    -192.9248     XY      26.5430     YY    -177.5866
        XZ     -14.1503     YZ      -1.4427     ZZ    -157.4857
    Octopole Moments (Debye-Ang^2)
       XXX    -282.7942    XXY     124.4347    XYY     -92.5685
       YYY      43.2046    XXZ    -173.3520    XYZ      52.4197
       YYZ      -3.1397    XZZ       8.4384    YZZ      -3.8845
       ZZZ      -1.6677
    Hexadecapole Moments (Debye-Ang^3)
      XXXX  -24105.5048   XXXY    1871.6146   XXYY   -4983.7456
      XYYY     301.1600   YYYY   -3448.0851   XXXZ    -891.7419
      XXYZ     198.2584   XYYZ    -169.1916   YYYZ       6.8261
      XXZZ   -3683.3427   XYZZ      -9.3987   YYZZ    -701.6130
      XZZZ       9.6106   YZZZ     -43.5603   ZZZZ   -1078.2937
 -----------------------------------------------------------------
 Calculating MO derivatives via CPSCF
   1         3         168      0.155573    0.016678
   2         3         168      0.031779    0.004169
   3         3         168      0.006259    0.000993
   4        16         155      0.000883    0.000145
   5       165           6      0.000043    0.000016
   6       168           3      0.000005    0.000002
   7       171           0      0.000000    0.000000    Roots Converged
 Calculating CIS amplitude derivatives via CPCIS
 CIS relaxed dipole moment
            1
    1   0.2212332
    2  -0.1445951
    3   0.0056410
	Magnitude:	 0.264 au	 0.672 Debye
 CIS Excitation Energy is    0.0939880828
 Gradient of the CIS Excitation Energy
            1           2           3           4           5           6
    1   0.0000595   0.0001526   0.0005124  -0.0000517  -0.0000013   0.0000051
    2   0.0001178  -0.0003200   0.0007012  -0.0000637   0.0000608  -0.0000319
    3  -0.0000127  -0.0000058  -0.0002790   0.0001294  -0.0000387   0.0000248
            7           8           9          10          11          12
    1   0.0000016  -0.0000027   0.0000075   0.0000194   0.0000031   0.0000406
    2   0.0000082   0.0000171   0.0000107  -0.0000214  -0.0000045  -0.0000116
    3  -0.0000192   0.0000237  -0.0000235  -0.0000119   0.0000108  -0.0000040
           13          14          15          16          17          18
    1  -0.0000550   0.0006615  -0.0034137   0.0014021  -0.0000943   0.0001836
    2   0.0000035  -0.0016736   0.0031111  -0.0006216  -0.0002002   0.0001677
    3   0.0000179   0.0002233  -0.0009261   0.0009318  -0.0008351  -0.0002363
           19          20          21          22          23          24
    1   0.0000374   0.0000713  -0.0000501   0.0002680  -0.0000325   0.0004015
    2   0.0000174   0.0000246  -0.0000996  -0.0002241   0.0000339  -0.0004859
    3   0.0001115  -0.0003388   0.0000295  -0.0000567   0.0000543   0.0002751
           25          26          27          28          29          30
    1   0.0422515  -0.0512127  -0.0266511   0.0261051  -0.0009525   0.0515751
    2  -0.0283299   0.0176444   0.0371667  -0.0508643   0.0004639  -0.0069165
    3  -0.0048607   0.0307341  -0.0257363   0.0468529   0.0003825  -0.0470695
           31          32          33          34          35          36
    1  -0.0006542  -0.0584888   0.0004350   0.0002269   0.0178703   0.0010769
    2   0.0006152   0.0444253   0.0001983  -0.0006183  -0.0310559  -0.0000554
    3  -0.0001774  -0.0012582  -0.0007622   0.0006994   0.0264570  -0.0011167
           37          38          39          40          41          42
    1  -0.0017586  -0.0000027  -0.0000024   0.0000175   0.0000398  -0.0000131
    2   0.0168398   0.0000101   0.0000005   0.0000042   0.0000343   0.0000003
    3  -0.0231891  -0.0000091   0.0000064   0.0000109  -0.0000133  -0.0000129
           43          44          45          46          47          48
    1  -0.0000251  -0.0000307  -0.0000061   0.0000071   0.0000042   0.0000142
    2  -0.0000158  -0.0000830  -0.0000016   0.0000080  -0.0000010   0.0000048
    3   0.0000042  -0.0000073  -0.0000068  -0.0000039   0.0000047   0.0000087
           49          50          51          52          53          54
    1   0.0000350   0.0000028   0.0000062  -0.0000032  -0.0000055   0.0000030
    2   0.0000233   0.0000004   0.0000032  -0.0000035  -0.0000102   0.0000034
    3  -0.0000055   0.0000041  -0.0000004   0.0000009   0.0000137  -0.0000045
           55          56
    1   0.0000097   0.0000005
    2   0.0000019  -0.0000083
    3   0.0000054   0.0000044
gradient:-0.000059
gradient:-0.000118
gradient:0.000013
gradient:-0.000151
gradient:0.000323
gradient:0.000006
gradient:-0.000515
gradient:-0.000705
gradient:0.000276
gradient:0.000050
gradient:0.000065
gradient:-0.000125
gradient:0.000001
gradient:-0.000063
gradient:0.000038
gradient:-0.000002
gradient:0.000032
gradient:-0.000025
gradient:-0.000001
gradient:-0.000007
gradient:0.000018
gradient:0.000003
gradient:-0.000017
gradient:-0.000023
gradient:-0.000008
gradient:-0.000011
gradient:0.000024
gradient:-0.000020
gradient:0.000020
gradient:0.000011
gradient:-0.000003
gradient:0.000004
gradient:-0.000010
gradient:-0.000041
gradient:0.000011
gradient:0.000004
gradient:0.000055
gradient:-0.000004
gradient:-0.000018
gradient:-0.000660
gradient:0.001678
gradient:-0.000224
gradient:0.003405
gradient:-0.003110
gradient:0.000936
gradient:-0.001407
gradient:0.000622
gradient:-0.000936
gradient:0.000096
gradient:0.000200
gradient:0.000834
gradient:-0.000185
gradient:-0.000167
gradient:0.000237
gradient:-0.000039
gradient:-0.000017
gradient:-0.000112
gradient:-0.000072
gradient:-0.000024
gradient:0.000339
gradient:0.000049
gradient:0.000100
gradient:-0.000030
gradient:-0.000268
gradient:0.000224
gradient:0.000056
gradient:0.000032
gradient:-0.000034
gradient:-0.000054
gradient:-0.000404
gradient:0.000488
gradient:-0.000275
gradient:-0.042244
gradient:0.028334
gradient:0.004847
gradient:0.051207
gradient:-0.017646
gradient:-0.030725
gradient:0.026670
gradient:-0.037182
gradient:0.025738
gradient:-0.026108
gradient:0.050861
gradient:-0.046845
gradient:0.000954
gradient:-0.000462
gradient:-0.000386
gradient:-0.051596
gradient:0.006931
gradient:0.047071
gradient:0.000657
gradient:-0.000618
gradient:0.000179
gradient:0.058463
gradient:-0.044402
gradient:0.001253
gradient:-0.000430
gradient:-0.000199
gradient:0.000758
gradient:-0.000225
gradient:0.000615
gradient:-0.000697
gradient:-0.017855
gradient:0.031062
gradient:-0.026482
gradient:-0.001070
gradient:0.000052
gradient:0.001113
gradient:0.001770
gradient:-0.016865
gradient:0.023215
gradient:0.000003
gradient:-0.000010
gradient:0.000009
gradient:0.000002
gradient:-0.000001
gradient:-0.000005
gradient:-0.000017
gradient:-0.000004
gradient:-0.000011
gradient:-0.000038
gradient:-0.000034
gradient:0.000014
gradient:0.000013
gradient:-0.000000
gradient:0.000013
gradient:0.000026
gradient:0.000017
gradient:-0.000006
gradient:0.000031
gradient:0.000084
gradient:0.000006
gradient:0.000006
gradient:0.000002
gradient:0.000007
gradient:-0.000008
gradient:-0.000008
gradient:0.000003
gradient:-0.000004
gradient:0.000001
gradient:-0.000005
gradient:-0.000014
gradient:-0.000005
gradient:-0.000008
gradient:-0.000034
gradient:-0.000023
gradient:0.000005
gradient:-0.000003
gradient:-0.000001
gradient:-0.000004
gradient:-0.000007
gradient:-0.000003
gradient:0.000000
gradient:0.000004
gradient:0.000004
gradient:-0.000000
gradient:0.000005
gradient:0.000010
gradient:-0.000014
gradient:-0.000004
gradient:-0.000004
gradient:0.000005
gradient:-0.000010
gradient:-0.000002
gradient:-0.000005
gradient:-0.000000
gradient:0.000008
gradient:-0.000004
gradient:0.221485
gradient:-0.144603
gradient:0.005511
   1        73          98      0.015158    0.002668
   2       106          65      0.002794    0.000332
   3       121          50      0.000580    0.000052
   4       139          32      0.000126    0.000012
   5       160          11      0.000019    0.000005
   6       169           2      0.000004    0.000003
   7       170           1      0.000001    0.000001
   8       171           0      0.000000    0.000000    Roots Converged
 CPCIS time:  CPU 13157.05 s  wall 13191.46 s
 transition dipole derivative
            1           2           3
    1  -0.0011832  -0.0009532   0.0045845
    2   0.0065306  -0.0027890   0.0007866
    3  -0.0004412   0.0005268  -0.0005436
    4   0.0025407  -0.0010540  -0.0003106
    5  -0.0156433   0.0036961  -0.0014438
    6   0.0004655   0.0000433  -0.0014109
    7  -0.0085871   0.0110348   0.0015423
    8   0.0363395  -0.0110126   0.0048803
    9  -0.0018241  -0.0033112   0.0057382
   10   0.0007544   0.0011424   0.0004382
   11  -0.0017243   0.0030770   0.0006389
   12   0.0037857  -0.0016202   0.0002534
   13  -0.0003653   0.0002787  -0.0008381
   14   0.0015721  -0.0023072   0.0005872
   15  -0.0012072   0.0007094  -0.0004643
   16  -0.0000417  -0.0001204  -0.0001372
   17  -0.0011051   0.0012459   0.0003320
   18   0.0010100  -0.0003718  -0.0000801
   19  -0.0002055   0.0003005  -0.0005298
   20   0.0008279  -0.0001422  -0.0000355
   21  -0.0009476  -0.0000045   0.0006354
   22  -0.0005506  -0.0000425   0.0003746
   23   0.0006077  -0.0005371   0.0005429
   24   0.0005630  -0.0003701   0.0003756
   25   0.0001222   0.0002130  -0.0008120
   26   0.0003674  -0.0002517  -0.0004916
   27  -0.0009480  -0.0001592   0.0010167
   28   0.0008562  -0.0005210   0.0003563
   29  -0.0009878   0.0005131  -0.0001732
   30  -0.0005556   0.0003958  -0.0001793
   31   0.0001624  -0.0002279   0.0002111
   32  -0.0000106   0.0002504  -0.0003133
   33   0.0001936  -0.0003905   0.0004097
   34   0.0014010  -0.0014283   0.0003617
   35  -0.0006238   0.0003539  -0.0001159
   36  -0.0002064   0.0000194   0.0001044
   37  -0.0001170  -0.0026099   0.0033842
   38  -0.0012416   0.0031742  -0.0040412
   39   0.0007242  -0.0014130   0.0023686
   40  -0.1004410  -0.0028521   0.0250997
   41  -0.1033371   0.0013921  -0.0307544
   42   0.0028807  -0.0181387  -0.0150413
   43   0.3678179  -0.0704293  -0.0131431
   44  -0.0557471   0.2163182   0.1248708
   45  -0.0322682   0.1430044   0.0824793
   46  -0.0143890  -0.0482833   0.0051544
   47   0.0268843  -0.0502843  -0.0492934
   48   0.0605049  -0.0905038  -0.0528134
   49  -0.0189932   0.0225442   0.0005573
   50   0.0092856  -0.0005876  -0.0006926
   51  -0.0082429   0.0156427   0.0107338
   52   0.0060645   0.0134700  -0.0215271
   53   0.0076074   0.0061246  -0.0094018
   54  -0.0062423  -0.0062436   0.0137675
   55  -0.0012817   0.0022255   0.0082397
   56   0.0066292  -0.0057523   0.0050265
   57   0.0058329   0.0008609  -0.0003802
   58   0.0012892   0.0062883  -0.0081945
   59   0.0008735  -0.0043435   0.0074667
   60  -0.0068685  -0.0080408   0.0290592
   61  -0.0073862   0.0061339   0.0007593
   62   0.0029138   0.0063016  -0.0002769
   63   0.0008925   0.0056383  -0.0061074
   64   0.0037595  -0.0070896  -0.0009754
   65  -0.0020418   0.0026021  -0.0015012
   66   0.0013181  -0.0019632  -0.0034696
   67   0.0007728  -0.0028547   0.0037415
   68  -0.0001833   0.0030175  -0.0040834
   69   0.0012009  -0.0028108   0.0014813
   70  -0.0085857  -0.0129490   0.0274650
   71   0.0069265   0.0156369  -0.0322776
   72  -0.0021502  -0.0101615   0.0166500
   73  -1.5078966  -0.1678104   0.8607187
   74   0.0174605  -1.5398456   0.8685546
   75   0.5962657   1.0675541  -3.2032989
   76   2.3737977  -0.4423341  -1.2808090
   77  -0.8368334   1.0613914   0.2679831
   78  -0.7067633  -0.1672356   1.6482916
   79   1.6151962  -1.1542635   0.6256330
   80  -0.8848204   1.9623817  -1.0194614
   81   0.2168811  -0.7103145   1.4478341
   82  -1.7648911   0.9986643  -0.2634481
   83   0.9728964  -1.8027664   0.6375797
   84  -0.2187119   0.5975938  -1.3160785
   85  -0.0186712  -0.0150420  -0.0470002
   86  -0.0262588  -0.0559073  -0.0086471
   87  -0.0306993  -0.0212754  -0.0154120
   88  -2.2190464   0.8299509   0.4799567
   89   0.7975466  -1.3267613   0.1023673
   90   0.5403913   0.0643449  -1.3509386
   91  -0.0334601  -0.0309803  -0.0018453
   92  -0.0262499  -0.0317550  -0.0379945
   93  -0.0089501  -0.0323100  -0.0185606
   94   1.7389124  -0.5499466  -0.1000688
   95  -0.3601736   1.8122217  -0.9725926
   96  -0.3964320  -0.7514011   2.4614878
   97   0.0293382   0.0383193   0.0081276
   98   0.0368675   0.0469930   0.0201798
   99   0.0105119   0.0188511   0.0483150
  100   0.0256400   0.0341181   0.0157352
  101   0.0309917   0.0555532   0.0104539
  102   0.0203268   0.0066054   0.0530013
  103  -0.7544018   0.7139181  -0.5620739
  104   0.6991977  -1.3240927   0.7614002
  105  -0.5355944   0.7381588  -0.8099682
  106  -0.0027411   0.0313337   0.0056258
  107   0.0324182   0.0237650  -0.0051062
  108   0.0041621  -0.0040195   0.0460671
  109   0.2933004  -0.1980860   0.2258331
  110  -0.3763432   0.9318909  -0.6329134
  111   0.4915646  -0.8278311   0.9242001
  112  -0.0001078   0.0001685  -0.0001866
  113   0.0004163  -0.0003023  -0.0001074
  114  -0.0004809   0.0001840   0.0000397
  115   0.0037338   0.0002646   0.0029491
  116   0.0019533   0.0012860   0.0007545
  117   0.0004623  -0.0012927   0.0029368
  118   0.0001084  -0.0021726   0.0030817
  119  -0.0001141  -0.0020857   0.0023200
  120   0.0008566   0.0002859  -0.0010554
  121  -0.0040017  -0.0005904  -0.0059844
  122  -0.0007130  -0.0015153  -0.0013325
  123  -0.0029089   0.0005095  -0.0029151
  124  -0.0007383   0.0019511  -0.0034029
  125  -0.0017392   0.0021945  -0.0048354
  126   0.0016825  -0.0008170   0.0049416
  127  -0.0002448   0.0016008  -0.0012806
  128   0.0001895   0.0013507   0.0000338
  129  -0.0010469  -0.0000406  -0.0011721
  130  -0.0014176   0.0034479  -0.0052205
  131  -0.0076731   0.0065560  -0.0121838
  132   0.0060719  -0.0031696   0.0134310
  133  -0.0003536   0.0002254  -0.0001389
  134   0.0000976   0.0000964  -0.0001368
  135  -0.0003669   0.0002200  -0.0000098
  136  -0.0005106  -0.0001201  -0.0004860
  137   0.0029278  -0.0018789   0.0049262
  138  -0.0046170   0.0023520  -0.0089061
  139   0.0000799  -0.0001151   0.0000078
  140  -0.0000256   0.0000071  -0.0000570
  141   0.0001953  -0.0002118   0.0000526
  142  -0.0062631   0.0006952  -0.0083566
  143  -0.0038535  -0.0001765  -0.0052221
  144   0.0008974   0.0000775  -0.0008713
  145   0.0019650  -0.0028050   0.0048209
  146   0.0041851  -0.0045428   0.0093166
  147  -0.0040963   0.0035446  -0.0110720
  148   0.0086702  -0.0019985   0.0113942
  149   0.0033461  -0.0002014   0.0048316
  150   0.0023236  -0.0008983   0.0043082
  151   0.0002578  -0.0002441  -0.0000057
  152   0.0001584  -0.0001182   0.0000692
  153  -0.0000803   0.0000483  -0.0001169
  154  -0.0001634   0.0001096  -0.0000609
  155  -0.0002040   0.0001376   0.0000016
  156   0.0000398  -0.0001049   0.0002932
  157  -0.0001369   0.0000997   0.0001269
  158  -0.0004387   0.0003328   0.0000188
  159   0.0005783  -0.0005633   0.0003235
  160   0.0001906  -0.0000759   0.0000441
  161   0.0002265  -0.0001649  -0.0000512
  162  -0.0001207   0.0001349   0.0000980
  163   0.0003526  -0.0003504   0.0003020
  164   0.0000978  -0.0000687  -0.0001096
  165   0.0001637  -0.0001881  -0.0000968
  166   0.0000894  -0.0001487   0.0002098
  167  -0.0002559   0.0003291  -0.0002759
  168   0.0000244  -0.0001295   0.0002675
mem use when entering cis_hess,0,625000000
mem use when entering PV,0,625000000
mem use when entering PT + WS,0,625000000
mem use when entering II^xy,0,625000000
mem use when entering PCM,0,625000000
mem use when entering E^xy,0,625000000
mem use when entering PF,0,625000000
mem use when entering ws,0,625000000
mem use when entering RPA_Hess_IIx,0,625000000
Nshell = 196 
s2Bra.ftnCode() = 360011 
 hess cis_hess_iirx
            1           2           3           4           5           6
    1  -0.0005318   0.0000330  -0.0000061   0.0000797   0.0001636   0.0000101
    2   0.0000330  -0.0000581  -0.0000064   0.0000226   0.0000323   0.0000032
    3  -0.0000061  -0.0000064   0.0000035   0.0000086   0.0000056  -0.0000051
    4   0.0000797   0.0000226   0.0000086  -0.0015880   0.0004645  -0.0001276
    5   0.0001636   0.0000323   0.0000056   0.0004645  -0.0003225   0.0000381
    6   0.0000101   0.0000032  -0.0000051  -0.0001276   0.0000381  -0.0000247
    7  -0.0003749   0.0001636   0.0000125   0.0002827  -0.0003132   0.0000226
    8  -0.0000738  -0.0000369  -0.0000016  -0.0008531   0.0004270  -0.0000777
    9   0.0000860  -0.0000184   0.0000067   0.0001510  -0.0000628   0.0000207
   10   0.0001452  -0.0000064   0.0000036  -0.0000403   0.0000025  -0.0000095
   11  -0.0000401  -0.0000308  -0.0000070   0.0001661  -0.0000379   0.0000189
   12   0.0000517  -0.0000168   0.0000001   0.0000534  -0.0000141  -0.0000041
   13   0.0000157   0.0000056   0.0000020  -0.0000479  -0.0000029  -0.0000059
   14  -0.0000684   0.0000196  -0.0000003  -0.0000590   0.0000374  -0.0000035
   15  -0.0000455   0.0000120   0.0000015  -0.0000410   0.0000269  -0.0000041
   16   0.0000360   0.0000030   0.0000002  -0.0000375   0.0000135  -0.0000008
   17  -0.0000036   0.0000012   0.0000024  -0.0000046   0.0000002  -0.0000013
   18  -0.0000114   0.0000009  -0.0000002   0.0000047  -0.0000037   0.0000018
   19  -0.0000047   0.0000002  -0.0000003   0.0000465  -0.0000086   0.0000044
   20  -0.0000005  -0.0000003   0.0000002  -0.0000200   0.0000097  -0.0000007
   21   0.0000020  -0.0000003  -0.0000003   0.0000037  -0.0000027   0.0000023
   22  -0.0000090   0.0000013  -0.0000002   0.0000415  -0.0000043   0.0000058
   23   0.0000046  -0.0000009  -0.0000007  -0.0000134   0.0000008  -0.0000014
   24  -0.0000037   0.0000001   0.0000005  -0.0000010   0.0000051   0.0000027
   25  -0.0000037   0.0000007  -0.0000000  -0.0000036   0.0000019  -0.0000004
   26  -0.0000012   0.0000010   0.0000001  -0.0000031   0.0000012  -0.0000004
   27  -0.0000013   0.0000009   0.0000001  -0.0000026   0.0000008  -0.0000004
   28  -0.0000233   0.0000024  -0.0000000   0.0000003   0.0000113  -0.0000000
   29   0.0000002   0.0000001  -0.0000000  -0.0000003  -0.0000003  -0.0000000
   30   0.0000007  -0.0000002  -0.0000001   0.0000002  -0.0000002  -0.0000000
   31   0.0000058   0.0000000   0.0000001   0.0000010  -0.0000035   0.0000003
   32   0.0000038   0.0000000   0.0000000   0.0000004  -0.0000020   0.0000002
   33   0.0000033  -0.0000000   0.0000001   0.0000005  -0.0000019   0.0000001
   34  -0.0000020   0.0000002   0.0000000   0.0000040  -0.0000006   0.0000003
   35  -0.0000027   0.0000003  -0.0000002   0.0000044  -0.0000007   0.0000004
   36  -0.0000001   0.0000000   0.0000000   0.0000012  -0.0000002   0.0000001
   37   0.0000103  -0.0000033  -0.0000012  -0.0000095   0.0000048   0.0000001
   38   0.0000005   0.0000010  -0.0000003  -0.0000177   0.0000052   0.0000033
   39  -0.0000080   0.0000011  -0.0000001   0.0000008   0.0000013   0.0000005
   40   0.0010271   0.0001603   0.0000376  -0.0008092  -0.0006531   0.0000031
   41  -0.0002529  -0.0001245  -0.0000193   0.0011495   0.0000765   0.0000435
   42  -0.0003310  -0.0000119  -0.0000159   0.0001003   0.0001454   0.0000257
   43   0.0005532  -0.0002491  -0.0000464   0.0040902  -0.0013002   0.0001599
   44   0.0003898   0.0006766   0.0000549   0.0011205  -0.0028307   0.0001496
   45   0.0003117   0.0002674   0.0000106   0.0015795  -0.0016921   0.0000947
   46  -0.0003349   0.0000813   0.0000158   0.0001240  -0.0001225   0.0000398
   47   0.0002501  -0.0000389  -0.0000107  -0.0000912   0.0000570  -0.0000370
   48   0.0001294  -0.0000140  -0.0000017   0.0001874  -0.0000867   0.0000043
   49  -0.0000272   0.0000167  -0.0000013   0.0001805  -0.0001052   0.0000230
   50   0.0000084  -0.0000072   0.0000016  -0.0002001   0.0001195  -0.0000137
   51  -0.0000330  -0.0000092  -0.0000016  -0.0001229   0.0000863  -0.0000078
   52  -0.0000245   0.0000015   0.0000001  -0.0000076  -0.0000073   0.0000056
   53   0.0000099  -0.0000033  -0.0000008  -0.0000097   0.0000263  -0.0000094
   54   0.0000003  -0.0000053  -0.0000002   0.0000338   0.0000117  -0.0000003
   55   0.0000393  -0.0000032  -0.0000006  -0.0000955   0.0000230  -0.0000257
   56  -0.0000428   0.0000013   0.0000008   0.0000378   0.0000034   0.0000121
   57  -0.0000015   0.0000014   0.0000008  -0.0000355   0.0000071  -0.0000027
   58  -0.0000007   0.0000037  -0.0000008   0.0000339  -0.0000354   0.0000045
   59  -0.0000000  -0.0000014   0.0000001  -0.0000175   0.0000121  -0.0000019
   60   0.0000051  -0.0000042  -0.0000002  -0.0000153   0.0000131  -0.0000011
   61  -0.0000226   0.0000055  -0.0000009  -0.0001061   0.0000431  -0.0000137
   62   0.0000268  -0.0000062   0.0000009   0.0000881  -0.0000316   0.0000129
   63   0.0000024  -0.0000012   0.0000001   0.0000060  -0.0000004   0.0000020
   64   0.0000143  -0.0000030   0.0000004  -0.0000196   0.0000118  -0.0000018
   65  -0.0000118   0.0000029  -0.0000004   0.0000171  -0.0000114   0.0000048
   66  -0.0000003   0.0000011   0.0000001   0.0000075  -0.0000046   0.0000004
   67  -0.0000036   0.0000022   0.0000002  -0.0000022  -0.0000009  -0.0000005
   68   0.0000030  -0.0000018  -0.0000002   0.0000003   0.0000023  -0.0000002
   69   0.0000006  -0.0000003   0.0000000   0.0000041  -0.0000019  -0.0000002
   70   0.0000244  -0.0000032  -0.0000017  -0.0000197   0.0000044  -0.0000009
   71   0.0000313  -0.0000062  -0.0000025  -0.0000182   0.0000096  -0.0000012
   72   0.0000208  -0.0000047  -0.0000018  -0.0000116   0.0000079  -0.0000007
   73  -0.0005300  -0.0000283  -0.0000109  -0.0015860   0.0011383  -0.0000432
   74  -0.0004246  -0.0003567   0.0000040  -0.0018449   0.0020665  -0.0001189
   75  -0.0002410  -0.0001412   0.0000182  -0.0015187   0.0012105  -0.0000609
   76  -0.0002161   0.0000046   0.0000138   0.0007324  -0.0001036   0.0000633
   77  -0.0000496   0.0000712   0.0000100   0.0012726  -0.0004657   0.0000887
   78   0.0000582   0.0000964  -0.0000013   0.0009844  -0.0004969   0.0000623
   79   0.0000706  -0.0001229  -0.0000191  -0.0011129   0.0006042  -0.0001186
   80   0.0001620  -0.0001403  -0.0000354  -0.0008687   0.0005294  -0.0001075
   81   0.0000505  -0.0001270  -0.0000175  -0.0010910   0.0006253  -0.0001167
   82   0.0000180   0.0000060   0.0000032   0.0001204  -0.0000057   0.0000179
   83  -0.0000037  -0.0000076   0.0000067   0.0001978   0.0000135   0.0000374
   84   0.0000116  -0.0000192   0.0000058   0.0001219   0.0000390   0.0000201
   85   0.0000011  -0.0000011   0.0000008  -0.0000094   0.0000104  -0.0000001
   86   0.0000004  -0.0000013   0.0000011  -0.0000138   0.0000145  -0.0000003
   87   0.0000001  -0.0000009   0.0000007  -0.0000102   0.0000099  -0.0000002
   88  -0.0000984  -0.0000333   0.0000000  -0.0002712   0.0002556  -0.0000156
   89  -0.0000885  -0.0000358  -0.0000040  -0.0005083   0.0003553  -0.0000405
   90  -0.0000873  -0.0000188  -0.0000006  -0.0003099   0.0002276  -0.0000240
   91   0.0000026  -0.0000007  -0.0000002  -0.0000093   0.0000080   0.0000001
   92   0.0000033  -0.0000008  -0.0000002  -0.0000155   0.0000117  -0.0000002
   93   0.0000030  -0.0000006  -0.0000002  -0.0000097   0.0000077  -0.0000002
   94   0.0000583   0.0000662  -0.0000047   0.0001272  -0.0002417   0.0000030
   95   0.0000553   0.0000047   0.0000036   0.0000379  -0.0000965  -0.0000054
   96   0.0000432   0.0000194   0.0000008   0.0000640  -0.0001181   0.0000084
   97  -0.0000081  -0.0000010   0.0000004   0.0000294  -0.0000026   0.0000042
   98  -0.0000113  -0.0000017   0.0000004   0.0000416  -0.0000033   0.0000057
   99  -0.0000085  -0.0000013   0.0000001   0.0000292  -0.0000016   0.0000038
  100  -0.0000072  -0.0000053  -0.0000007  -0.0000507   0.0000301  -0.0000027
  101  -0.0000075  -0.0000068  -0.0000010  -0.0000705   0.0000396  -0.0000037
  102  -0.0000074  -0.0000050  -0.0000006  -0.0000433   0.0000272  -0.0000025
  103  -0.0000101  -0.0000363   0.0000042  -0.0000433   0.0000889   0.0000027
  104   0.0000064   0.0000429  -0.0000066   0.0000536  -0.0001104   0.0000086
  105  -0.0000028  -0.0000235   0.0000021  -0.0000369   0.0000578   0.0000046
  106   0.0000008   0.0000005   0.0000001   0.0000135  -0.0000059   0.0000014
  107   0.0000013   0.0000009   0.0000002   0.0000180  -0.0000084   0.0000018
  108   0.0000007   0.0000008   0.0000001   0.0000130  -0.0000062   0.0000013
  109   0.0000009   0.0000084  -0.0000016  -0.0000089  -0.0000159  -0.0000038
  110  -0.0000092  -0.0000274   0.0000026  -0.0000609   0.0000772  -0.0000040
  111   0.0000038   0.0000261  -0.0000036   0.0000155  -0.0000604  -0.0000035
  112   0.0000010   0.0000001   0.0000002  -0.0000011   0.0000003  -0.0000002
  113   0.0000003  -0.0000002  -0.0000002  -0.0000004  -0.0000004  -0.0000001
  114  -0.0000010  -0.0000004  -0.0000001   0.0000016  -0.0000002  -0.0000001
  115  -0.0000021   0.0000030   0.0000002  -0.0000004  -0.0000012  -0.0000005
  116  -0.0000023   0.0000026  -0.0000000   0.0000019  -0.0000009  -0.0000003
  117  -0.0000049   0.0000054   0.0000002  -0.0000001  -0.0000017  -0.0000006
  118   0.0000008  -0.0000015  -0.0000001  -0.0000001   0.0000008   0.0000001
  119   0.0000036  -0.0000013  -0.0000000   0.0000002  -0.0000009   0.0000001
  120   0.0000016  -0.0000004  -0.0000000   0.0000012  -0.0000006  -0.0000001
  121   0.0000009   0.0000085   0.0000013  -0.0000038  -0.0000083  -0.0000012
  122   0.0000057  -0.0000058  -0.0000000  -0.0000011   0.0000014   0.0000004
  123   0.0000131  -0.0000105  -0.0000002  -0.0000006   0.0000023   0.0000008
  124   0.0000015  -0.0000008  -0.0000001   0.0000004  -0.0000001  -0.0000001
  125  -0.0000025   0.0000011   0.0000000   0.0000002   0.0000004   0.0000000
  126  -0.0000016   0.0000007   0.0000000  -0.0000002   0.0000003   0.0000001
  127   0.0000126  -0.0000053  -0.0000003   0.0000008  -0.0000015  -0.0000000
  128  -0.0000268   0.0000129   0.0000009  -0.0000086   0.0000047  -0.0000001
  129  -0.0000076   0.0000035   0.0000003  -0.0000030   0.0000014  -0.0000001
  130   0.0001508  -0.0001163  -0.0000089  -0.0000155   0.0000612  -0.0000001
  131  -0.0000908   0.0000507   0.0000027  -0.0000035  -0.0000057  -0.0000003
  132  -0.0000236   0.0000102  -0.0000010   0.0000015   0.0000014   0.0000034
  133  -0.0000022   0.0000013   0.0000000   0.0000001  -0.0000004   0.0000000
  134   0.0000024  -0.0000015  -0.0000001  -0.0000001   0.0000005   0.0000000
  135  -0.0000002  -0.0000001  -0.0000000   0.0000002   0.0000001   0.0000000
  136   0.0000001  -0.0000002  -0.0000000   0.0000000   0.0000002   0.0000000
  137   0.0000001   0.0000003   0.0000000  -0.0000003  -0.0000001  -0.0000000
  138  -0.0000002   0.0000002  -0.0000000   0.0000003   0.0000000  -0.0000001
  139   0.0000000  -0.0000000  -0.0000000   0.0000000   0.0000000   0.0000000
  140   0.0000000  -0.0000000  -0.0000000   0.0000000   0.0000000   0.0000000
  141   0.0000000   0.0000000   0.0000000  -0.0000000  -0.0000000  -0.0000000
  142  -0.0000021   0.0000008  -0.0000000   0.0000001   0.0000005   0.0000000
  143   0.0000030  -0.0000012  -0.0000000   0.0000006  -0.0000010  -0.0000001
  144   0.0000025  -0.0000009   0.0000000  -0.0000000  -0.0000006  -0.0000000
  145  -0.0000405   0.0000201   0.0000009  -0.0000082   0.0000034  -0.0000002
  146   0.0000408  -0.0000177  -0.0000007   0.0000073  -0.0000058  -0.0000001
  147   0.0000169  -0.0000067  -0.0000002   0.0000037  -0.0000033  -0.0000003
  148   0.0000011  -0.0000004   0.0000000   0.0000001  -0.0000003   0.0000000
  149  -0.0000011   0.0000005   0.0000000  -0.0000005   0.0000001   0.0000000
  150  -0.0000009   0.0000004   0.0000000  -0.0000004   0.0000001   0.0000001
  151   0.0000002  -0.0000001   0.0000000   0.0000000  -0.0000001  -0.0000000
  152  -0.0000003   0.0000001   0.0000000  -0.0000000   0.0000001   0.0000000
  153  -0.0000002   0.0000001   0.0000000  -0.0000000   0.0000000   0.0000000
  154  -0.0000003   0.0000001   0.0000000  -0.0000000   0.0000001   0.0000000
  155   0.0000004  -0.0000001  -0.0000000   0.0000000  -0.0000001  -0.0000000
  156   0.0000002  -0.0000001  -0.0000000   0.0000000  -0.0000000  -0.0000000
  157  -0.0000008   0.0000004   0.0000000  -0.0000001  -0.0000001   0.0000000
  158   0.0000052  -0.0000031  -0.0000002  -0.0000011   0.0000008  -0.0000001
  159   0.0000027  -0.0000015  -0.0000001  -0.0000006   0.0000004  -0.0000000
  160   0.0000000   0.0000000   0.0000000   0.0000000  -0.0000000   0.0000000
  161   0.0000000  -0.0000000   0.0000000   0.0000000  -0.0000000   0.0000000
  162  -0.0000000  -0.0000000  -0.0000000  -0.0000000   0.0000000  -0.0000000
  163   0.0000001  -0.0000002  -0.0000000   0.0000001   0.0000000   0.0000000
  164  -0.0000000  -0.0000001  -0.0000000   0.0000001   0.0000001  -0.0000000
  165   0.0000000  -0.0000001  -0.0000000   0.0000001   0.0000001   0.0000000
  166   0.0000084  -0.0000018  -0.0000005  -0.0000011  -0.0000010   0.0000006
  167   0.0000006   0.0000017  -0.0000000   0.0000029   0.0000001   0.0000002
  168  -0.0000033  -0.0000001   0.0000001   0.0000029   0.0000005   0.0000004
            7           8           9          10          11          12
    1  -0.0003749  -0.0000738   0.0000860   0.0001452  -0.0000401   0.0000517
    2   0.0001636  -0.0000369  -0.0000184  -0.0000064  -0.0000308  -0.0000168
    3   0.0000125  -0.0000016   0.0000067   0.0000036  -0.0000070   0.0000001
    4   0.0002827  -0.0008531   0.0001510  -0.0000403   0.0001661   0.0000534
    5  -0.0003132   0.0004270  -0.0000628   0.0000025  -0.0000379  -0.0000141
    6   0.0000226  -0.0000777   0.0000207  -0.0000095   0.0000189  -0.0000041
    7  -0.0076728   0.0007773   0.0008932   0.0003285   0.0002541   0.0002265
    8   0.0007773  -0.0010462   0.0000973  -0.0000992   0.0002164   0.0000374
    9   0.0008932   0.0000973  -0.0003533   0.0000253  -0.0000350   0.0000151
   10   0.0003285  -0.0000992   0.0000253  -0.0005022   0.0001300  -0.0001009
   11   0.0002541   0.0002164  -0.0000350   0.0001300  -0.0006786  -0.0002284
   12   0.0002265   0.0000374   0.0000151  -0.0001009  -0.0002284  -0.0001471
   13  -0.0001695  -0.0000211   0.0000186   0.0000324   0.0001679   0.0000771
   14   0.0000418  -0.0000229  -0.0000068   0.0001005   0.0001619   0.0001059
   15   0.0000235  -0.0000168  -0.0000024   0.0000606   0.0001082   0.0000719
   16   0.0001159  -0.0000292  -0.0000074  -0.0000352   0.0000610   0.0000098
   17  -0.0000259  -0.0000007   0.0000032   0.0000041  -0.0000001   0.0000009
   18  -0.0000426   0.0000042   0.0000053   0.0000086  -0.0000013   0.0000020
   19   0.0000122   0.0000058  -0.0000096  -0.0000017  -0.0000049  -0.0000021
   20  -0.0000045  -0.0000066   0.0000009   0.0000028   0.0000064   0.0000028
   21  -0.0000112   0.0000031   0.0000010  -0.0000017   0.0000029   0.0000003
   22  -0.0000056   0.0000041  -0.0000020   0.0000079  -0.0000054   0.0000012
   23  -0.0000001   0.0000008   0.0000019  -0.0000056   0.0000001  -0.0000013
   24   0.0000103  -0.0000061  -0.0000006   0.0000042   0.0000007   0.0000018
   25  -0.0000113  -0.0000017   0.0000017   0.0000087   0.0000007   0.0000041
   26  -0.0000065  -0.0000040   0.0000008   0.0000020   0.0000095   0.0000045
   27  -0.0000089  -0.0000028   0.0000009   0.0000025   0.0000059   0.0000041
   28   0.0000504  -0.0000091  -0.0000053   0.0000041  -0.0000131  -0.0000022
   29  -0.0000010   0.0000010   0.0000009   0.0000007  -0.0000013  -0.0000004
   30  -0.0000020   0.0000001  -0.0000001   0.0000002  -0.0000022  -0.0000009
   31  -0.0000090   0.0000027   0.0000001  -0.0000007   0.0000010  -0.0000008
   32  -0.0000043   0.0000013   0.0000005  -0.0000010   0.0000013  -0.0000004
   33  -0.0000039   0.0000011   0.0000002  -0.0000005   0.0000006  -0.0000006
   34   0.0000016   0.0000026  -0.0000008   0.0000022  -0.0000032  -0.0000004
   35  -0.0000011   0.0000033  -0.0000005   0.0000037  -0.0000049  -0.0000005
   36   0.0000013   0.0000009  -0.0000004   0.0000009  -0.0000014  -0.0000001
   37   0.0001474  -0.0000350  -0.0000131  -0.0000079  -0.0000045  -0.0000073
   38   0.0000164  -0.0000168  -0.0000162  -0.0000028   0.0000091   0.0000052
   39  -0.0000745  -0.0000056   0.0000202   0.0000065  -0.0000003   0.0000004
   40   0.0034354   0.0012454  -0.0003187   0.0002167  -0.0014975  -0.0005094
   41   0.0017041   0.0000581  -0.0003805  -0.0002014   0.0005988   0.0001583
   42  -0.0016628  -0.0002184   0.0006215   0.0000657   0.0001903   0.0001039
   43  -0.0034070   0.0014978  -0.0002802  -0.0008769   0.0006924  -0.0006557
   44  -0.0235597   0.0058498   0.0027947   0.0012803  -0.0015881  -0.0004300
   45  -0.0122798   0.0031287   0.0014389   0.0003793  -0.0005788  -0.0003800
   46  -0.0016682   0.0005572   0.0003597   0.0009726  -0.0003658   0.0002826
   47   0.0015538  -0.0004385  -0.0001891  -0.0007590   0.0003948  -0.0001687
   48   0.0006392   0.0001052  -0.0001628  -0.0003430   0.0000722  -0.0000987
   49  -0.0007552   0.0002314   0.0000479   0.0000573  -0.0001278  -0.0000075
   50   0.0006614  -0.0002817  -0.0000865   0.0000259   0.0002626   0.0000920
   51   0.0003403  -0.0001892   0.0000039   0.0001453   0.0000110   0.0000541
   52  -0.0002078   0.0000385   0.0000717   0.0000564  -0.0000467   0.0000115
   53   0.0000557  -0.0000809  -0.0000072  -0.0000894   0.0000566  -0.0000166
   54   0.0001120  -0.0000820  -0.0000360  -0.0000440   0.0000281  -0.0000091
   55   0.0001159  -0.0000269  -0.0000864  -0.0002950  -0.0000497  -0.0001230
   56  -0.0002907   0.0000261   0.0000378   0.0001591   0.0000007   0.0000556
   57  -0.0000596   0.0000215  -0.0000290  -0.0000079  -0.0000266  -0.0000126
   58  -0.0000825   0.0001092  -0.0000085   0.0000491  -0.0001589  -0.0000331
   59   0.0000393  -0.0000211  -0.0000069  -0.0000081   0.0000159   0.0000007
   60   0.0001273  -0.0000335  -0.0000136  -0.0000018  -0.0000155  -0.0000092
   61  -0.0002630  -0.0001311   0.0000208   0.0000683   0.0003109   0.0001316
   62   0.0003541   0.0000974  -0.0000311  -0.0001170  -0.0002877  -0.0001361
   63   0.0000741   0.0000067  -0.0000077  -0.0000223  -0.0000472  -0.0000219
   64   0.0001753  -0.0000400  -0.0000178  -0.0000394   0.0000552  -0.0000005
   65  -0.0001714   0.0000570   0.0000351   0.0000341  -0.0000469   0.0000008
   66  -0.0000280   0.0000155   0.0000051  -0.0000081   0.0000034  -0.0000049
   67  -0.0000400   0.0000048   0.0000032   0.0000089   0.0000011   0.0000052
   68   0.0000332  -0.0000149  -0.0000039  -0.0000054   0.0000025  -0.0000019
   69  -0.0000020   0.0000029   0.0000008  -0.0000023  -0.0000040  -0.0000035
   70   0.0000704  -0.0000050  -0.0000267  -0.0000396  -0.0000676  -0.0000408
   71   0.0001017  -0.0000196  -0.0000339  -0.0000616  -0.0000774  -0.0000549
   72   0.0000626  -0.0000173  -0.0000223  -0.0000427  -0.0000499  -0.0000375
   73   0.0059113  -0.0022673  -0.0007943  -0.0000504   0.0002071   0.0004569
   74   0.0101476  -0.0044272  -0.0011186  -0.0003343   0.0007372   0.0003303
   75   0.0062645  -0.0024608  -0.0010437  -0.0001434   0.0004103   0.0003147
   76   0.0007787   0.0002225   0.0002220   0.0003622   0.0008081   0.0004449
   77   0.0032259   0.0009161  -0.0002203   0.0005566   0.0008677   0.0005964
   78   0.0031097   0.0009624  -0.0004002   0.0004064   0.0004681   0.0004313
   79   0.0013606  -0.0008437  -0.0001764  -0.0005763  -0.0007434  -0.0004878
   80   0.0033188  -0.0007140  -0.0007603  -0.0008269  -0.0010639  -0.0006103
   81   0.0008959  -0.0009568   0.0000256  -0.0005275  -0.0006236  -0.0004648
   82   0.0013081   0.0000763  -0.0000406   0.0002264   0.0003427   0.0002309
   83   0.0016972   0.0000594  -0.0001232   0.0002668   0.0004873   0.0003279
   84   0.0012414  -0.0000260  -0.0000997   0.0001896   0.0003306   0.0001912
   85   0.0001732  -0.0000127  -0.0000070   0.0000033   0.0000141   0.0000110
   86   0.0002221  -0.0000177  -0.0000051   0.0000043   0.0000190   0.0000146
   87   0.0001314  -0.0000136  -0.0000028   0.0000036   0.0000132   0.0000089
   88   0.0008565  -0.0004314  -0.0001321  -0.0000104   0.0000819   0.0000684
   89   0.0011949  -0.0006438  -0.0000234   0.0000041   0.0001011   0.0000662
   90   0.0006073  -0.0003936  -0.0000474   0.0000074   0.0000674   0.0000555
   91   0.0001042  -0.0000202   0.0000199   0.0000004   0.0000056   0.0000042
   92   0.0001389  -0.0000294   0.0000299   0.0000002   0.0000079   0.0000055
   93   0.0001123  -0.0000193   0.0000199  -0.0000001   0.0000046   0.0000044
   94  -0.0007026   0.0003699   0.0000129  -0.0000634  -0.0002074  -0.0000672
   95  -0.0013054   0.0001019   0.0001573  -0.0001053  -0.0001670  -0.0001820
   96  -0.0007412   0.0001674   0.0000480  -0.0000748  -0.0001386  -0.0000875
   97  -0.0000066   0.0000040   0.0000065   0.0000266   0.0000342   0.0000238
   98  -0.0000063   0.0000044   0.0000085   0.0000344   0.0000469   0.0000319
   99  -0.0000022   0.0000017   0.0000064   0.0000221   0.0000325   0.0000217
  100  -0.0000395  -0.0000525   0.0000129  -0.0000101  -0.0000166  -0.0000101
  101  -0.0000389  -0.0000681   0.0000144  -0.0000135  -0.0000229  -0.0000133
  102  -0.0000412  -0.0000481   0.0000128  -0.0000094  -0.0000145  -0.0000093
  103  -0.0000740  -0.0001645   0.0000166   0.0000124   0.0000724  -0.0000189
  104   0.0002464   0.0001853  -0.0001002   0.0000305  -0.0000044   0.0000696
  105  -0.0000459  -0.0001235   0.0000166   0.0000124   0.0000524  -0.0000059
  106   0.0000128   0.0000129  -0.0000048   0.0000048   0.0000076   0.0000045
  107   0.0000198   0.0000187  -0.0000067   0.0000066   0.0000099   0.0000063
  108   0.0000161   0.0000140  -0.0000048   0.0000045   0.0000064   0.0000044
  109   0.0000132   0.0000323  -0.0000172  -0.0000180  -0.0000341  -0.0000066
  110  -0.0001511  -0.0001496   0.0000415  -0.0000253  -0.0000096  -0.0000469
  111   0.0000917   0.0001190  -0.0000431  -0.0000128  -0.0000503   0.0000119
  112   0.0000033  -0.0000008  -0.0000004  -0.0000007   0.0000010  -0.0000001
  113  -0.0000001   0.0000001   0.0000000  -0.0000002  -0.0000002  -0.0000002
  114  -0.0000009   0.0000009   0.0000003   0.0000004  -0.0000016  -0.0000003
  115  -0.0000006   0.0000009  -0.0000003  -0.0000006   0.0000006   0.0000001
  116  -0.0000013   0.0000014  -0.0000003  -0.0000006   0.0000001  -0.0000002
  117  -0.0000023   0.0000013  -0.0000001  -0.0000008   0.0000008  -0.0000000
  118   0.0000005  -0.0000004   0.0000001   0.0000000  -0.0000001   0.0000000
  119   0.0000022   0.0000004  -0.0000005  -0.0000000  -0.0000002  -0.0000001
  120   0.0000008   0.0000008  -0.0000005  -0.0000001  -0.0000001  -0.0000001
  121  -0.0000022   0.0000062  -0.0000013  -0.0000019   0.0000034   0.0000008
  122   0.0000078  -0.0000021  -0.0000007   0.0000004  -0.0000011  -0.0000003
  123   0.0000112  -0.0000034  -0.0000006   0.0000004  -0.0000020  -0.0000008
  124   0.0000004   0.0000002  -0.0000001  -0.0000001   0.0000000  -0.0000001
  125  -0.0000014  -0.0000002   0.0000003   0.0000002   0.0000000   0.0000001
  126  -0.0000012  -0.0000003   0.0000003   0.0000002  -0.0000000   0.0000001
  127   0.0000037   0.0000010  -0.0000010   0.0000002  -0.0000008  -0.0000004
  128  -0.0000060  -0.0000059   0.0000029  -0.0000002   0.0000014   0.0000007
  129  -0.0000018  -0.0000016   0.0000009  -0.0000002   0.0000007   0.0000003
  130   0.0002556  -0.0000830  -0.0000226  -0.0000275  -0.0000322  -0.0000275
  131  -0.0001217   0.0000181   0.0000168   0.0000181   0.0000115   0.0000137
  132  -0.0000230   0.0000021   0.0000023   0.0000054  -0.0000003   0.0000020
  133  -0.0000022   0.0000005   0.0000002   0.0000002   0.0000003   0.0000002
  134   0.0000021  -0.0000007  -0.0000002  -0.0000002  -0.0000004  -0.0000003
  135  -0.0000003  -0.0000000   0.0000001   0.0000000  -0.0000000   0.0000000
  136  -0.0000000   0.0000000  -0.0000000   0.0000001  -0.0000001   0.0000000
  137   0.0000006  -0.0000000  -0.0000001  -0.0000002   0.0000001  -0.0000001
  138  -0.0000000   0.0000001  -0.0000000  -0.0000001   0.0000001  -0.0000000
  139   0.0000001   0.0000000  -0.0000000   0.0000000  -0.0000000  -0.0000000
  140  -0.0000000  -0.0000000   0.0000000   0.0000000  -0.0000000  -0.0000000
  141   0.0000001   0.0000000  -0.0000000  -0.0000000   0.0000000  -0.0000000
  142  -0.0000001  -0.0000003   0.0000000   0.0000001  -0.0000001   0.0000000
  143  -0.0000005   0.0000013  -0.0000002   0.0000000   0.0000002   0.0000001
  144   0.0000010   0.0000005  -0.0000003  -0.0000001   0.0000001  -0.0000000
  145  -0.0000232  -0.0000022   0.0000043   0.0000034   0.0000018   0.0000026
  146   0.0000219   0.0000043  -0.0000052  -0.0000028  -0.0000018  -0.0000023
  147   0.0000081   0.0000028  -0.0000023  -0.0000020   0.0000005  -0.0000007
  148   0.0000007   0.0000001  -0.0000001  -0.0000001  -0.0000000  -0.0000001
  149  -0.0000008  -0.0000001   0.0000002   0.0000002   0.0000000   0.0000001
  150  -0.0000005  -0.0000001   0.0000001   0.0000001  -0.0000000   0.0000001
  151   0.0000002   0.0000001  -0.0000001  -0.0000000  -0.0000000  -0.0000000
  152   0.0000000  -0.0000001  -0.0000000   0.0000000  -0.0000000  -0.0000000
  153  -0.0000001  -0.0000000   0.0000000   0.0000000  -0.0000000   0.0000000
  154  -0.0000002  -0.0000001   0.0000001   0.0000000   0.0000000   0.0000000
  155  -0.0000000   0.0000001  -0.0000000  -0.0000000  -0.0000000  -0.0000000
  156   0.0000000   0.0000000  -0.0000000  -0.0000000  -0.0000000  -0.0000000
  157  -0.0000005  -0.0000000   0.0000002   0.0000001   0.0000000   0.0000001
  158   0.0000038  -0.0000008  -0.0000003  -0.0000007  -0.0000002  -0.0000004
  159   0.0000023  -0.0000003  -0.0000003  -0.0000003  -0.0000001  -0.0000002
  160   0.0000001   0.0000000  -0.0000000  -0.0000000  -0.0000000  -0.0000000
  161   0.0000001   0.0000000  -0.0000000  -0.0000000  -0.0000000  -0.0000000
  162  -0.0000001  -0.0000000   0.0000000   0.0000000   0.0000000   0.0000000
  163   0.0000002   0.0000000  -0.0000000   0.0000000  -0.0000000   0.0000000
  164  -0.0000001   0.0000000  -0.0000000   0.0000000  -0.0000000   0.0000000
  165   0.0000000   0.0000000  -0.0000000   0.0000000  -0.0000000   0.0000000
  166  -0.0000007   0.0000006  -0.0000002  -0.0000002  -0.0000012  -0.0000009
  167   0.0000054   0.0000008  -0.0000005  -0.0000011  -0.0000013  -0.0000012
  168  -0.0000030   0.0000009   0.0000005   0.0000011  -0.0000012  -0.0000001
           13          14          15          16          17          18
    1   0.0000157  -0.0000684  -0.0000455   0.0000360  -0.0000036  -0.0000114
    2   0.0000056   0.0000196   0.0000120   0.0000030   0.0000012   0.0000009
    3   0.0000020  -0.0000003   0.0000015   0.0000002   0.0000024  -0.0000002
    4  -0.0000479  -0.0000590  -0.0000410  -0.0000375  -0.0000046   0.0000047
    5  -0.0000029   0.0000374   0.0000269   0.0000135   0.0000002  -0.0000037
    6  -0.0000059  -0.0000035  -0.0000041  -0.0000008  -0.0000013   0.0000018
    7  -0.0001695   0.0000418   0.0000235   0.0001159  -0.0000259  -0.0000426
    8  -0.0000211  -0.0000229  -0.0000168  -0.0000292  -0.0000007   0.0000042
    9   0.0000186  -0.0000068  -0.0000024  -0.0000074   0.0000032   0.0000053
   10   0.0000324   0.0001005   0.0000606  -0.0000352   0.0000041   0.0000086
   11   0.0001679   0.0001619   0.0001082   0.0000610  -0.0000001  -0.0000013
   12   0.0000771   0.0001059   0.0000719   0.0000098   0.0000009   0.0000020
   13  -0.0001653  -0.0000761  -0.0000579   0.0000211  -0.0000074  -0.0000086
   14  -0.0000761  -0.0001527  -0.0001014  -0.0000281   0.0000029   0.0000050
   15  -0.0000579  -0.0001014  -0.0000720  -0.0000139   0.0000007   0.0000034
   16   0.0000211  -0.0000281  -0.0000139  -0.0000607   0.0000058   0.0000097
   17  -0.0000074   0.0000029   0.0000007   0.0000058  -0.0000062  -0.0000019
   18  -0.0000086   0.0000050   0.0000034   0.0000097  -0.0000019  -0.0000041
   19   0.0000025  -0.0000002  -0.0000002   0.0000002   0.0000002   0.0000009
   20  -0.0000012  -0.0000011  -0.0000008  -0.0000008  -0.0000004  -0.0000005
   21  -0.0000007   0.0000007   0.0000004  -0.0000001   0.0000001  -0.0000001
   22   0.0000012  -0.0000024  -0.0000012  -0.0000011   0.0000005   0.0000000
   23  -0.0000002   0.0000016   0.0000010   0.0000011  -0.0000001  -0.0000000
   24   0.0000001  -0.0000022  -0.0000013  -0.0000011  -0.0000002   0.0000001
   25  -0.0000005  -0.0000028  -0.0000020   0.0000005  -0.0000000   0.0000001
   26  -0.0000023  -0.0000027  -0.0000020  -0.0000002  -0.0000000   0.0000002
   27  -0.0000015  -0.0000022  -0.0000018  -0.0000002  -0.0000001   0.0000002
   28   0.0000332   0.0000017   0.0000025   0.0000012  -0.0000004   0.0000009
   29   0.0000002   0.0000002   0.0000004  -0.0000006  -0.0000003  -0.0000006
   30  -0.0000008   0.0000021   0.0000010   0.0000003  -0.0000009  -0.0000002
   31   0.0000041   0.0000048   0.0000041  -0.0000009  -0.0000003  -0.0000005
   32   0.0000020   0.0000024   0.0000022  -0.0000007  -0.0000001  -0.0000003
   33   0.0000016   0.0000024   0.0000025  -0.0000004   0.0000001  -0.0000003
   34   0.0000011   0.0000005   0.0000002   0.0000017   0.0000003  -0.0000000
   35   0.0000011   0.0000009   0.0000004   0.0000025   0.0000003  -0.0000001
   36   0.0000003   0.0000001   0.0000003   0.0000004   0.0000002  -0.0000004
   37   0.0000059   0.0000009   0.0000008  -0.0000041   0.0000006   0.0000011
   38  -0.0000028  -0.0000025  -0.0000019   0.0000002  -0.0000002   0.0000000
   39  -0.0000011   0.0000013   0.0000007   0.0000014  -0.0000003  -0.0000004
   40   0.0003069   0.0001892   0.0001383   0.0000513   0.0000019   0.0000311
   41  -0.0000832  -0.0001131  -0.0000764  -0.0000589   0.0000160   0.0000058
   42  -0.0000674  -0.0000319  -0.0000228   0.0000178  -0.0000023  -0.0000071
   43   0.0007826   0.0013094   0.0009439  -0.0000450   0.0000250  -0.0001229
   44   0.0008639   0.0015882   0.0010619   0.0004516  -0.0000855  -0.0001691
   45   0.0006019   0.0010990   0.0007493   0.0002101  -0.0000372  -0.0001113
   46   0.0001452  -0.0001868  -0.0001052   0.0000237   0.0000171   0.0000102
   47  -0.0001416   0.0001049   0.0000558  -0.0000271  -0.0000119  -0.0000045
   48  -0.0001673   0.0000146  -0.0000105   0.0000265  -0.0000125  -0.0000022
   49  -0.0000871  -0.0000203  -0.0000242   0.0000495  -0.0000105   0.0000006
   50   0.0001108   0.0000011   0.0000157  -0.0000658   0.0000128   0.0000024
   51   0.0001468   0.0000268   0.0000353  -0.0000390   0.0000106   0.0000006
   52   0.0000046  -0.0000010  -0.0000011   0.0000091   0.0000001  -0.0000003
   53   0.0000006   0.0000133   0.0000089  -0.0000073  -0.0000006  -0.0000006
   54  -0.0000004   0.0000048   0.0000031  -0.0000048  -0.0000001  -0.0000002
   55   0.0000716   0.0000918   0.0000601  -0.0000054  -0.0000016  -0.0000035
   56  -0.0000346  -0.0000444  -0.0000290   0.0000052   0.0000003   0.0000002
   57   0.0000061   0.0000061   0.0000040   0.0000015  -0.0000003  -0.0000007
   58   0.0000291   0.0000202   0.0000127   0.0000130  -0.0000011   0.0000009
   59   0.0000019   0.0000014   0.0000012  -0.0000025  -0.0000002  -0.0000000
   60   0.0000079   0.0000087   0.0000054  -0.0000007  -0.0000001   0.0000003
   61  -0.0000667  -0.0000839  -0.0000509  -0.0000165   0.0000040  -0.0000044
   62   0.0000709   0.0000864   0.0000528   0.0000099  -0.0000028   0.0000053
   63   0.0000159   0.0000150   0.0000094   0.0000004  -0.0000002   0.0000012
   64  -0.0000044   0.0000014   0.0000013  -0.0000043   0.0000014  -0.0000007
   65   0.0000011  -0.0000029  -0.0000012   0.0000040  -0.0000003   0.0000009
   66  -0.0000001   0.0000009   0.0000014  -0.0000012   0.0000002   0.0000001
   67   0.0000042  -0.0000032  -0.0000029  -0.0000017   0.0000001   0.0000007
   68  -0.0000017   0.0000037   0.0000029   0.0000012  -0.0000001  -0.0000006
   69  -0.0000051  -0.0000002  -0.0000006   0.0000016  -0.0000004  -0.0000000
   70   0.0000218   0.0000296   0.0000185   0.0000033  -0.0000005   0.0000004
   71   0.0000265   0.0000395   0.0000248   0.0000035  -0.0000005   0.0000003
   72   0.0000178   0.0000265   0.0000166   0.0000019  -0.0000003   0.0000003
   73  -0.0006345  -0.0008915  -0.0006941  -0.0000891  -0.0000125   0.0001076
   74  -0.0006553  -0.0012786  -0.0008183  -0.0002548   0.0000766   0.0000997
   75  -0.0004428  -0.0008636  -0.0005744  -0.0001555   0.0000337   0.0000786
   76  -0.0003878  -0.0005035  -0.0003040  -0.0000340   0.0000181   0.0000098
   77  -0.0003867  -0.0006132  -0.0004068  -0.0000726   0.0000172   0.0000322
   78  -0.0002122  -0.0003644  -0.0002794  -0.0000587  -0.0000041   0.0000365
   79   0.0003064   0.0003896   0.0002566   0.0000303  -0.0000089  -0.0000066
   80   0.0004390   0.0005824   0.0003403   0.0000363  -0.0000306   0.0000110
   81   0.0002670   0.0003279   0.0002335   0.0000279   0.0000031  -0.0000133
   82  -0.0001959  -0.0002668  -0.0001819  -0.0000229   0.0000072   0.0000107
   83  -0.0002718  -0.0003540  -0.0002378  -0.0000319   0.0000055   0.0000185
   84  -0.0001679  -0.0002445  -0.0001538  -0.0000255   0.0000109   0.0000082
   85  -0.0000108  -0.0000166  -0.0000115  -0.0000019  -0.0000003   0.0000008
   86  -0.0000150  -0.0000222  -0.0000153  -0.0000023  -0.0000004   0.0000011
   87  -0.0000103  -0.0000148  -0.0000101  -0.0000015  -0.0000002   0.0000006
   88  -0.0000848  -0.0001204  -0.0000730  -0.0000120   0.0000011   0.0000050
   89  -0.0000826  -0.0001556  -0.0000965  -0.0000295   0.0000037   0.0000058
   90  -0.0000774  -0.0001056  -0.0000685  -0.0000103  -0.0000014   0.0000041
   91  -0.0000065  -0.0000092  -0.0000067  -0.0000009  -0.0000004   0.0000007
   92  -0.0000088  -0.0000124  -0.0000090  -0.0000012  -0.0000006   0.0000010
   93  -0.0000053  -0.0000083  -0.0000061  -0.0000009  -0.0000004   0.0000007
   94   0.0000822   0.0001684   0.0000756   0.0000185  -0.0000228   0.0000065
   95   0.0001191   0.0001488   0.0001215   0.0000174   0.0000132  -0.0000164
   96   0.0000792   0.0001142   0.0000773   0.0000132  -0.0000006  -0.0000036
   97  -0.0000134  -0.0000195  -0.0000124  -0.0000016  -0.0000003  -0.0000001
   98  -0.0000181  -0.0000259  -0.0000166  -0.0000023  -0.0000005  -0.0000001
   99  -0.0000127  -0.0000173  -0.0000113  -0.0000015  -0.0000004  -0.0000000
  100   0.0000089   0.0000128   0.0000086   0.0000015  -0.0000008  -0.0000011
  101   0.0000132   0.0000172   0.0000116   0.0000015  -0.0000010  -0.0000013
  102   0.0000075   0.0000116   0.0000078   0.0000015  -0.0000007  -0.0000011
  103  -0.0000134  -0.0000545  -0.0000041  -0.0000058   0.0000200  -0.0000101
  104  -0.0000294   0.0000070  -0.0000286   0.0000003  -0.0000188   0.0000126
  105  -0.0000101  -0.0000374  -0.0000048  -0.0000060   0.0000118  -0.0000051
  106  -0.0000035  -0.0000049  -0.0000030  -0.0000005   0.0000003   0.0000002
  107  -0.0000046  -0.0000064  -0.0000041  -0.0000007   0.0000003   0.0000003
  108  -0.0000033  -0.0000042  -0.0000029  -0.0000004   0.0000001   0.0000002
  109   0.0000115   0.0000227   0.0000076   0.0000017  -0.0000046   0.0000017
  110   0.0000198   0.0000020   0.0000208  -0.0000010   0.0000099  -0.0000070
  111   0.0000071   0.0000341   0.0000015   0.0000039  -0.0000121   0.0000059
  112  -0.0000002  -0.0000005  -0.0000002  -0.0000004   0.0000002   0.0000002
  113   0.0000002   0.0000003   0.0000002  -0.0000000   0.0000005   0.0000000
  114   0.0000004   0.0000003   0.0000001   0.0000009   0.0000003   0.0000001
  115  -0.0000003  -0.0000005  -0.0000003  -0.0000005   0.0000001   0.0000001
  116   0.0000001   0.0000002   0.0000002  -0.0000001   0.0000000   0.0000001
  117   0.0000002  -0.0000003  -0.0000001  -0.0000006  -0.0000001   0.0000001
  118   0.0000000   0.0000001   0.0000000   0.0000002  -0.0000000  -0.0000000
  119   0.0000001   0.0000001   0.0000001  -0.0000005   0.0000001   0.0000000
  120  -0.0000001  -0.0000000   0.0000000  -0.0000002   0.0000001   0.0000000
  121  -0.0000007  -0.0000030  -0.0000020  -0.0000040   0.0000002   0.0000007
  122  -0.0000002   0.0000005   0.0000003   0.0000004  -0.0000003  -0.0000003
  123  -0.0000004   0.0000015   0.0000009   0.0000007  -0.0000002  -0.0000003
  124  -0.0000001   0.0000000   0.0000000  -0.0000002   0.0000000   0.0000000
  125   0.0000000  -0.0000001  -0.0000001   0.0000003  -0.0000000  -0.0000000
  126   0.0000000  -0.0000000  -0.0000000   0.0000002  -0.0000000  -0.0000000
  127   0.0000006   0.0000007   0.0000006  -0.0000009   0.0000002  -0.0000001
  128  -0.0000007  -0.0000011  -0.0000009   0.0000017  -0.0000005  -0.0000001
  129  -0.0000004  -0.0000005  -0.0000004   0.0000004  -0.0000001   0.0000000
  130  -0.0000003   0.0000392   0.0000249   0.0000054  -0.0000020  -0.0000012
  131   0.0000021  -0.0000184  -0.0000116   0.0000006   0.0000009   0.0000009
  132   0.0000014  -0.0000011  -0.0000007   0.0000024  -0.0000007  -0.0000005
  133  -0.0000001  -0.0000004  -0.0000003  -0.0000000   0.0000000   0.0000000
  134   0.0000001   0.0000004   0.0000003   0.0000001   0.0000000   0.0000000
  135  -0.0000000  -0.0000000  -0.0000000   0.0000000   0.0000000  -0.0000000
  136   0.0000000  -0.0000000   0.0000000   0.0000001   0.0000000  -0.0000000
  137  -0.0000000   0.0000000   0.0000000  -0.0000001  -0.0000000   0.0000000
  138  -0.0000001  -0.0000000   0.0000000  -0.0000000   0.0000000   0.0000000
  139   0.0000000   0.0000000   0.0000000   0.0000000   0.0000000  -0.0000000
  140   0.0000000   0.0000000   0.0000000   0.0000000   0.0000000  -0.0000000
  141   0.0000000  -0.0000000  -0.0000000  -0.0000000   0.0000000   0.0000000
  142  -0.0000000   0.0000000   0.0000000   0.0000003  -0.0000000  -0.0000000
  143  -0.0000000  -0.0000003  -0.0000001  -0.0000004   0.0000001   0.0000001
  144   0.0000000  -0.0000000  -0.0000000  -0.0000004   0.0000000   0.0000000
  145  -0.0000000  -0.0000033  -0.0000022   0.0000026  -0.0000001  -0.0000004
  146   0.0000003   0.0000028   0.0000021  -0.0000030   0.0000006  -0.0000001
  147  -0.0000000   0.0000002   0.0000003  -0.0000026   0.0000005   0.0000004
  148  -0.0000000   0.0000001   0.0000000  -0.0000002  -0.0000000  -0.0000000
  149   0.0000000  -0.0000001  -0.0000001   0.0000001  -0.0000000  -0.0000000
  150   0.0000000  -0.0000000  -0.0000000   0.0000001  -0.0000000   0.0000000
  151   0.0000000   0.0000000   0.0000000  -0.0000000   0.0000000   0.0000000
  152   0.0000000   0.0000000   0.0000000   0.0000000  -0.0000000  -0.0000000
  153   0.0000000   0.0000000   0.0000000   0.0000000  -0.0000000  -0.0000000
  154  -0.0000000  -0.0000000  -0.0000000   0.0000000  -0.0000000  -0.0000000
  155  -0.0000000   0.0000000   0.0000000  -0.0000000   0.0000000   0.0000000
  156   0.0000000   0.0000000   0.0000000  -0.0000000   0.0000000   0.0000000
  157  -0.0000000  -0.0000001  -0.0000001   0.0000000   0.0000000  -0.0000000
  158  -0.0000001   0.0000006   0.0000004  -0.0000000   0.0000000   0.0000001
  159  -0.0000000   0.0000003   0.0000002  -0.0000000   0.0000000   0.0000001
  160   0.0000000   0.0000000   0.0000000   0.0000000  -0.0000000  -0.0000000
  161   0.0000000   0.0000000   0.0000000   0.0000000  -0.0000000  -0.0000000
  162  -0.0000000  -0.0000000  -0.0000000  -0.0000000   0.0000000   0.0000000
  163   0.0000001   0.0000000   0.0000000   0.0000000  -0.0000000  -0.0000000
  164   0.0000000   0.0000000   0.0000000   0.0000000  -0.0000000  -0.0000000
  165   0.0000000   0.0000000   0.0000000   0.0000000  -0.0000000  -0.0000000
  166   0.0000005   0.0000014   0.0000010  -0.0000001   0.0000002   0.0000003
  167   0.0000019   0.0000025   0.0000018   0.0000003   0.0000004  -0.0000000
  168   0.0000008   0.0000005   0.0000004   0.0000008   0.0000002   0.0000001
           19          20          21          22          23          24
    1  -0.0000047  -0.0000005   0.0000020  -0.0000090   0.0000046  -0.0000037
    2   0.0000002  -0.0000003  -0.0000003   0.0000013  -0.0000009   0.0000001
    3  -0.0000003   0.0000002  -0.0000003  -0.0000002  -0.0000007   0.0000005
    4   0.0000465  -0.0000200   0.0000037   0.0000415  -0.0000134  -0.0000010
    5  -0.0000086   0.0000097  -0.0000027  -0.0000043   0.0000008   0.0000051
    6   0.0000044  -0.0000007   0.0000023   0.0000058  -0.0000014   0.0000027
    7   0.0000122  -0.0000045  -0.0000112  -0.0000056  -0.0000001   0.0000103
    8   0.0000058  -0.0000066   0.0000031   0.0000041   0.0000008  -0.0000061
    9  -0.0000096   0.0000009   0.0000010  -0.0000020   0.0000019  -0.0000006
   10  -0.0000017   0.0000028  -0.0000017   0.0000079  -0.0000056   0.0000042
   11  -0.0000049   0.0000064   0.0000029  -0.0000054   0.0000001   0.0000007
   12  -0.0000021   0.0000028   0.0000003   0.0000012  -0.0000013   0.0000018
   13   0.0000025  -0.0000012  -0.0000007   0.0000012  -0.0000002   0.0000001
   14  -0.0000002  -0.0000011   0.0000007  -0.0000024   0.0000016  -0.0000022
   15  -0.0000002  -0.0000008   0.0000004  -0.0000012   0.0000010  -0.0000013
   16   0.0000002  -0.0000008  -0.0000001  -0.0000011   0.0000011  -0.0000011
   17   0.0000002  -0.0000004   0.0000001   0.0000005  -0.0000001  -0.0000002
   18   0.0000009  -0.0000005  -0.0000001   0.0000000  -0.0000000   0.0000001
   19  -0.0000194   0.0000054   0.0000019  -0.0000002   0.0000002  -0.0000001
[...]
   32      C       6.5017736468    -1.5179219398    -0.2973697988
   33      H       6.9390105684    -0.5593306171    -2.2151046809
   34      H       5.7472746935    -2.2392101203     1.6165453316
   35      C       7.6562482408    -2.3767814500    -0.2995149156
   36      H       8.3212029743    -2.2952689019    -1.1614682961
   37      O       7.9041859161    -3.1586507022     0.5926279597
   38      H      -2.1894346801     1.7920486407     1.6937743834
   39      C      -5.4088556245     0.0402687698    -1.7502386584
   40      C      -5.8401399619    -0.8424685824    -0.7285241513
   41      C      -4.2359068083     0.7158112500    -1.6374160550
   42      C      -7.0600988378    -1.5657300395    -0.8115885115
   43      C      -5.0231511974    -1.0023336303     0.4068824092
   44      C      -3.3991926573     0.5661539223    -0.4982892140
   45      H      -3.9285982718     1.3809929945    -2.4259210196
   46      C      -7.4393444321    -2.4023512988     0.1879377694
   47      H      -7.6809013367    -1.4397655455    -1.6819430382
   48      C      -5.4471562659    -1.8855950254     1.4370450801
   49      C      -3.8046941193    -0.2807851097     0.4911255786
   50      C      -6.6180682735    -2.5643841016     1.3314667158
   51      H      -8.3643790142    -2.9468580085     0.1182446311
   52      H      -4.8235360539    -2.0089623011     2.3056973272
   53      H      -3.1977860309    -0.4200517349     1.3693127898
   54      H      -6.9297552274    -3.2304580244     2.1166242098
   55      H      -6.0257463036     0.1702025125    -2.6228821967
   56      H      -2.0188452924     1.9337197926    -1.3300575312
 ----------------------------------------------------------------
 Nuclear Repulsion Energy =  2322.2716433081 hartrees
 There are       99 alpha and       99 beta electrons
 Requested basis set is 6-31G(d,p)
 There are 196 shells and 560 basis functions

Total QAlloc Memory Limit  20000 MB
Mega-Array Size      4888 MB
MEM_STATIC part      5000 MB
 A cutoff of  1.0D-12 yielded   9507 shell pairs
 There are     77576 function pairs
 Smallest overlap matrix eigenvalue = 2.65E-04

  Scale SEOQF with 1.000000e-02/1.000000e-01/1.000000e-01

 Standard Electronic Orientation quadrupole field applied
 Nucleus-field energy     =     0.0000000402 hartrees
 Guess MOs from SCF MO coefficient file
Reading MOs from coefficient file
Reading MOs from coefficient file
 A restricted Hartree-Fock SCF calculation will be
 performed using Pulay DIIS extrapolation
 SCF converges when DIIS error is below 1.0E-10
 ---------------------------------------
  Cycle       Energy         DIIS Error
 ---------------------------------------
    1   -1113.6920031773      2.04E-11
    2   -1113.6920031773      2.88E-11 Convergence criterion met
 ---------------------------------------
 SCF time:  CPU 147.46 s  wall 147.88 s
 SCF   energy in the final basis set = -1113.6920031773
 Total energy in the final basis set = -1113.6920031773
 Direct RCIS calculation will be performed
 Triplet excitation energies requested
 CIS energy converged when residual is below 10e-10
 ---------------------------------------------------
 Iter    Rts Conv    Rts Left    Ttl Dev     Max Dev
 ---------------------------------------------------
   1         0           2      0.000208    0.000148
   2         0           2      0.000812    0.000507
   3         0           2      0.000364    0.000246
   4         0           2      0.000186    0.000120
   5         0           2      0.000104    0.000077
   6         0           2      0.000034    0.000026
   7         0           2      0.000016    0.000014
   8         0           2      0.000007    0.000006
   9         0           2      0.000004    0.000003
  10         0           2      0.000002    0.000001
  11         0           2      0.000001    0.000001
  12         0           2      0.000000    0.000000
  13         0           2      0.000000    0.000000
  14         0           2      0.000000    0.000000
  15         0           2      0.000000    0.000000
  16         0           2      0.000000    0.000000
  17         0           2      0.000000    0.000000
  18         1           1      0.000000    0.000000
  19         1           1      0.000000    0.000000
  20         1           1      0.000000    0.000000
  21         2           0      0.000000    0.000000    Roots Converged
 ---------------------------------------------------
 
 
 ---------------------------------------------------
               CIS Excitation Energies              
 ---------------------------------------------------

 Excited state   1: excitation energy (eV) =    2.5575
    Total energy for state   1:  -1113.598015137799
    Multiplicity: Triplet 
    Trans. Mom.:  0.0000 X   0.0000 Y   0.0000 Z
    Strength   :  0.0000
    D( 96) --> V(  4) amplitude =  0.2878
    D( 97) --> V(  1) amplitude =  0.8774

 Excited state   2: excitation energy (eV) =    2.7404
    Total energy for state   2:  -1113.591295729696
    Multiplicity: Triplet 
    Trans. Mom.:  0.0000 X   0.0000 Y   0.0000 Z
    Strength   :  0.0000
    D( 95) --> V(  5) amplitude =  0.3243
    D( 98) --> V(  3) amplitude =  0.3523
    D( 99) --> V(  2) amplitude = -0.8160
 
 ---------------------------------------------------
  Timing summary (seconds)
  CPU time       2775.28s
  System time       0.00s
  Wall time      2780.52s


 Entering the ER Localization Code for CIS excited states. 

NOTE: THIS HAS BEEN ONLY PARTIALLY TESTED FOR THE CASE THAT WE HAVE UNRESTRICTED ORBITALS.
INITIAL CENTER1 LOCATIONS: state 0  Occ x 10.733 y -1.805 z -0.420 Virt x 10.675 y -1.761 z -0.421
INITIAL CENTER1 LOCATIONS: state 1  Occ x -10.191 y -1.720 z -0.265 Virt x -10.192 y -1.696 z -0.307
INITIAL CENTER2 LOCATIONS: state 0  Occ x 122.062 y  8.851 z  2.791 Virt x 121.521 y  8.813 z  3.518
INITIAL CENTER2 LOCATIONS: state 1  Occ x 111.675 y  9.141 z  5.736 Virt x 112.121 y  9.475 z  5.938
INITIAL STANDARD DEVIATIONS: state 0  Occ x  2.621 y  2.365 z  1.617 Virt x  2.750 y  2.390 z  1.828
INITIAL STANDARD DEVIATIONS: state 1  Occ x  2.795 y  2.486 z  2.380 Virt x  2.872 y  2.569 z  2.417
INITIAL : state 0 sum of square of distances to other adiabatic states Occ 437.852231 Virt 435.449829
INITIAL : state 1 sum of square of distances to other adiabatic states Occ 437.852231 Virt 435.449829



Calling Random Orthogonal Matrix...
RandomSeed = 25
location random matrix in checkantisymmetry: max_diff = 0.000000e+00
location random matrix in checkunitary: max_diff = 0.000000e+00
 initially ruedvalue =    1.02168875312707     
showmatrix initial R-Matrix(0,0) =   0.5517358267
showmatrix initial R-Matrix(1,0) =   0.0036534431
showmatrix initial R-Matrix(0,1) =  -0.0044571518
showmatrix initial R-Matrix(1,1) =   0.4699529264
JacSwp  rnd     1 max_diff -9.999000e+03 ruedval     1.0218477360
In RUED_JACOBI SWEEPS for DIABATIC STATES, ending in round     1  because max_diff = 3.252607e-19
showmatrix final R-Matrix(0,0) =   0.5518232156
showmatrix final R-Matrix(1,0) =  -0.0000010795
showmatrix final R-Matrix(0,1) =  -0.0000010795
showmatrix final R-Matrix(1,1) =   0.4700245204
showmatrix final adiabatic -> diabatic RotMatrix(0,0) =   0.9999994874
showmatrix final adiabatic -> diabatic RotMatrix(1,0) =  -0.0010125593
showmatrix final adiabatic -> diabatic RotMatrix(0,1) =   0.0010125593
showmatrix final adiabatic -> diabatic RotMatrix(1,1) =   0.9999994874
location RotMatrix in boys_diabatic_nogs in checkunitary: max_diff = 2.220446e-16
showing H in adiabatic representation: NO coupling elements!!!
showmatrix adiabatH(0,0) =   0.0939880395
showmatrix adiabatH(1,0) =   0.0000000000
showmatrix adiabatH(0,1) =   0.0000000000
showmatrix adiabatH(1,1) =   0.1007074476
getting H in diabatic representation: WITH coupling elements!!!
showmatrix diabatH(0,0) =   0.0939880463
showmatrix diabatH(1,0) =  -0.0000068038
showmatrix diabatH(0,1) =  -0.0000068038
showmatrix diabatH(1,1) =   0.1007074407
FINAL CENTER LOCATIONS Spin Occ : state 0 x 10.733 y -1.805 z -0.420  Virt x 10.675 y -1.761 z -0.421
FINAL CENTER LOCATIONS Spin Occ : state 1 x -10.191 y -1.720 z -0.265  Virt x -10.192 y -1.696 z -0.307
FINAL CENTER2 LOCATIONS: state 0  Occ x 122.062 y  8.851 z  2.791 Virt x 121.522 y  8.813 z  3.518
FINAL CENTER2 LOCATIONS: state 1  Occ x 111.675 y  9.141 z  5.736 Virt x 112.121 y  9.475 z  5.938
FINAL STANDARD DEVIATIONS: state 0  Occ x  2.621 y  2.365 z  1.617 Virt x  2.750 y  2.390 z  1.828
FINAL STANDARD DEVIATIONS: state 1  Occ x  2.794 y  2.486 z  2.380 Virt x  2.872 y  2.569 z  2.417
FINAL: state 0 sum of square of distances to other Centers Occ 437.854012 Virt 435.451582 
FINAL: state 1 sum of square of distances to other Centers Occ 437.854012 Virt 435.451582 



Calculating ER second derivative! Everything should be negative. If so, we are done.
location hessian --max_diff from checksymmetry = 0.000000e+00
eval of hessian: count 0 eval -3.311402
 STSman time:  CPU 0.00 s  wall 0.00 s

 Analysis of SCF Wavefunction
 
 --------------------------------------------------------------
                    Orbital Energies (a.u.)
 --------------------------------------------------------------
 
 Alpha MOs
 -- Occupied --
-20.547 -11.322 -11.271 -11.259 -11.252 -11.247 -11.243 -11.242
-11.241 -11.238 -11.236 -11.236 -11.232 -11.232 -11.231 -11.231
-11.230 -11.229 -11.229 -11.227 -11.227 -11.227 -11.225 -11.225
-11.222 -11.220 -11.220 -11.219  -1.377  -1.178  -1.163  -1.147
 -1.119  -1.092  -1.056  -1.043  -1.034  -1.032  -1.015  -0.991
 -0.980  -0.963  -0.898  -0.872  -0.848  -0.838  -0.830  -0.822
 -0.814  -0.805  -0.779  -0.767  -0.763  -0.704  -0.699  -0.695
 -0.667  -0.665  -0.649  -0.636  -0.635  -0.620  -0.617  -0.615
 -0.602  -0.602  -0.595  -0.594  -0.584  -0.580  -0.575  -0.570
 -0.563  -0.545  -0.539  -0.533  -0.527  -0.521  -0.509  -0.506
 -0.504  -0.495  -0.489  -0.481  -0.478  -0.477  -0.468  -0.467
 -0.457  -0.454  -0.437  -0.417  -0.416  -0.413  -0.378  -0.355
 -0.316  -0.310  -0.285
 -- Virtual --
  0.071   0.101   0.132   0.141   0.189   0.216   0.220   0.224
  0.233   0.238   0.246   0.248   0.253   0.265   0.268   0.278
  0.287   0.290   0.300   0.302   0.311   0.313   0.317   0.319
  0.321   0.325   0.330   0.332   0.335   0.341   0.350   0.353
  0.355   0.357   0.368   0.376   0.389   0.399   0.400   0.409
  0.415   0.423   0.427   0.434   0.440   0.448   0.454   0.465
  0.466   0.478   0.485   0.486   0.491   0.499   0.509   0.517
  0.531   0.536   0.546   0.559   0.573   0.582   0.595   0.668
  0.688   0.696   0.708   0.714   0.717   0.722   0.728   0.731
  0.734   0.741   0.742   0.745   0.750   0.753   0.756   0.764
  0.768   0.780   0.782   0.786   0.796   0.798   0.801   0.808
  0.815   0.819   0.822   0.830   0.835   0.845   0.848   0.855
  0.865   0.866   0.876   0.879   0.885   0.902   0.907   0.918
  0.922   0.926   0.934   0.939   0.946   0.948   0.954   0.968
  0.973   0.980   0.985   1.003   1.005   1.016   1.027   1.034
  1.040   1.043   1.048   1.060   1.067   1.069   1.071   1.074
  1.078   1.081   1.082   1.084   1.090   1.096   1.096   1.104
  1.107   1.114   1.116   1.123   1.130   1.133   1.136   1.149
  1.157   1.158   1.165   1.172   1.183   1.184   1.188   1.194
  1.194   1.199   1.209   1.213   1.217   1.223   1.225   1.229
  1.232   1.236   1.250   1.253   1.264   1.280   1.283   1.296
  1.308   1.310   1.333   1.353   1.360   1.380   1.388   1.402
  1.409   1.418   1.433   1.439   1.447   1.459   1.478   1.483
  1.490   1.503   1.510   1.520   1.530   1.549   1.558   1.571
  1.594   1.600   1.607   1.617   1.628   1.638   1.647   1.653
  1.655   1.661   1.671   1.675   1.690   1.695   1.700   1.703
  1.715   1.717   1.721   1.735   1.767   1.769   1.781   1.791
  1.801   1.815   1.824   1.836   1.849   1.888   1.913   1.927
  1.932   1.950   1.969   1.996   2.013   2.021   2.036   2.049
  2.051   2.054   2.073   2.083   2.093   2.105   2.108   2.111
  2.113   2.136   2.140   2.142   2.146   2.156   2.166   2.172
  2.175   2.183   2.187   2.190   2.195   2.206   2.209   2.216
  2.225   2.226   2.232   2.238   2.241   2.245   2.249   2.263
  2.270   2.274   2.280   2.287   2.289   2.302   2.309   2.319
  2.325   2.337   2.341   2.353   2.368   2.374   2.382   2.396
  2.404   2.415   2.430   2.437   2.441   2.444   2.453   2.462
  2.465   2.484   2.494   2.508   2.511   2.515   2.525   2.538
  2.550   2.556   2.575   2.586   2.588   2.595   2.597   2.613
  2.617   2.627   2.633   2.637   2.658   2.662   2.665   2.676
  2.678   2.690   2.696   2.704   2.711   2.714   2.716   2.733
  2.739   2.741   2.744   2.751   2.760   2.775   2.778   2.784
  2.791   2.792   2.803   2.812   2.824   2.829   2.840   2.845
  2.848   2.859   2.876   2.888   2.892   2.894   2.897   2.907
  2.911   2.925   2.929   2.932   2.948   2.953   2.958   2.964
  2.971   2.975   2.993   3.000   3.010   3.014   3.033   3.041
  3.047   3.057   3.059   3.070   3.084   3.089   3.098   3.109
  3.116   3.128   3.151   3.158   3.168   3.172   3.186   3.188
  3.194   3.195   3.211   3.213   3.217   3.230   3.242   3.246
  3.262   3.279   3.291   3.298   3.321   3.332   3.346   3.359
  3.368   3.383   3.408   3.423   3.441   3.444   3.479   3.523
  3.540   3.552   3.591   3.632   3.632   3.637   3.648   3.661
  3.662   3.689   3.695   3.705   3.717   3.732   3.735   3.766
  3.795   3.803   3.807   3.826   3.866   3.876   3.888   3.891
  3.917   3.924   3.928   3.932   3.981   3.991   4.172   4.202
  4.317   4.363   4.526   4.547   4.572   4.576   4.585   4.603
  4.617   4.659   4.717   4.750   4.770   4.810   4.839   4.853
  4.863   4.891   4.928   4.940   4.949   5.096   5.136   5.193
  5.233   5.258   5.285   5.292   5.383
 --------------------------------------------------------------
 
          Ground-State Mulliken Net Atomic Charges

     Atom                 Charge (a.u.)
  ----------------------------------------
      1 C                    -0.154264
      2 C                    -0.180387
      3 C                    -0.135422
      4 C                    -0.120505
      5 C                    -0.209385
      6 C                    -0.197305
      7 H                     0.106057
      8 H                     0.122439
      9 H                     0.104653
     10 H                     0.115467
     11 H                     0.105828
     12 H                     0.123034
     13 H                     0.106070
     14 C                    -0.184330
     15 C                    -0.165832
     16 C                    -0.201595
     17 C                    -0.208984
     18 H                     0.109082
     19 H                     0.124556
     20 H                     0.110988
     21 H                     0.124788
     22 H                     0.118018
     23 H                     0.107045
     24 H                     0.125038
     25 C                     0.026643
     26 C                    -0.174440
     27 C                    -0.153816
     28 C                    -0.109055
     29 H                     0.150794
     30 C                    -0.086420
     31 H                     0.153422
     32 C                    -0.180303
     33 H                     0.164910
     34 H                     0.197253
     35 C                     0.396341
     36 H                     0.106832
     37 O                    -0.539633
     38 H                     0.107470
     39 C                    -0.124469
     40 C                    -0.040264
     41 C                    -0.168083
     42 C                    -0.124281
     43 C                    -0.029872
     44 C                    -0.001205
     45 H                     0.146095
     46 C                    -0.160592
     47 H                     0.151230
     48 C                    -0.127036
     49 C                    -0.135434
     50 C                    -0.158002
     51 H                     0.150011
     52 H                     0.149829
     53 H                     0.146674
     54 H                     0.150216
     55 H                     0.152357
     56 H                     0.117772
  ----------------------------------------
  Sum of atomic charges =     0.000000

 -----------------------------------------------------------------
                    Cartesian Multipole Moments
 -----------------------------------------------------------------
    Charge (ESU x 10^10)
                 0.0000
    Dipole Moment (Debye)
         X      -2.5466      Y       3.3663      Z      -1.8000
       Tot       4.5888
    Quadrupole Moments (Debye-Ang)
        XX    -192.9249     XY      26.5430     YY    -177.5866
        XZ     -14.1503     YZ      -1.4427     ZZ    -157.4857
    Octopole Moments (Debye-Ang^2)
       XXX    -282.7940    XXY     124.4348    XYY     -92.5685
       YYY      43.2045    XXZ    -173.3520    XYZ      52.4197
       YYZ      -3.1397    XZZ       8.4383    YZZ      -3.8845
       ZZZ      -1.6677
    Hexadecapole Moments (Debye-Ang^3)
      XXXX  -24105.5056   XXXY    1871.6144   XXYY   -4983.7458
      XYYY     301.1600   YYYY   -3448.0853   XXXZ    -891.7418
      XXYZ     198.2584   XYYZ    -169.1916   YYYZ       6.8261
      XXZZ   -3683.3428   XYZZ      -9.3986   YYZZ    -701.6130
      XZZZ       9.6106   YZZZ     -43.5603   ZZZZ   -1078.2937
 -----------------------------------------------------------------
Archival summary:
1\1\fermi.chem.uh.edu\SP\HF\6-31G**\12728\xunmo\SatMar106:00:122014SatMar106:00:122014\0\\#,HF,6-31G**,\\0,1\C\H,1,1.09278\C,1,1.53276,2,107.695\H,3,1.0871,1,109.908,2,-60.3378,0\H,3,1.08869,1,109.182,2,-176.742,0\C,1,1.53288,2,107.656,3,-120.548,0\H,6,1.08712,1,109.825,2,60.3702,0\H,6,1.089,1,109.091,2,176.696,0\C,1,1.53727,2,107.406,3,119.739,0\H,9,1.0929,1,107.421,2,179.892,0\C,9,1.53121,1,110.726,2,62.5083,0\H,11,1.08749,9,109.872,1,177.529,0\H,11,1.0899,9,109.178,1,-66.0817,0\C,11,1.53021,9,112.127,1,55.281,0\H,14,1.08654,11,110.158,9,-177.457,0\H,14,1.08835,11,109.212,9,65.8851,0\C,9,1.53151,1,110.786,2,-62.7176,0\H,17,1.08755,9,109.822,1,-177.4,0\H,17,1.08995,9,109.171,1,66.2478,0\C,17,1.53012,9,112.084,1,-55.1167,0\H,20,1.08644,17,110.212,9,177.474,0\H,20,1.08805,17,109.322,9,-65.8006,0\C,20,1.53771,17,111.535,9,55.4305,0\H,23,1.08885,20,106.967,17,61.4512,0\C,23,1.52137,20,112.626,17,178.701,0\C,25,1.36407,23,122.282,20,62.9083,0\H,26,1.07654,25,120.293,23,0.0342302,0\C,26,1.41858,25,121.875,23,-179.963,0\C,28,1.4079,26,119.246,25,0.00711852,0\C,29,1.41744,28,118.389,26,0,0\H,30,1.07654,29,119.019,28,179.996,0\C,30,1.35827,29,120.839,28,-0.0050212,0\H,32,1.0764,30,119.541,29,179.995,0\C,29,1.42067,28,119.186,26,-179.998,0\H,34,1.07647,29,118.877,28,179.998,0\C,34,1.3575,29,120.704,28,0.00129704,0\H,36,1.07565,34,120.299,29,179.996,0\C,36,1.41718,34,120.178,29,0,0\H,38,1.07577,36,119.46,34,179.993,0\C,38,1.35755,36,120.36,34,-0.00116846,0\H,40,1.07642,38,120.341,36,179.994,0\C,14,1.54062,11,111.669,9,-55.429,0\H,42,1.08916,14,106.976,11,-61.7482,0\C,42,1.51108,14,112.636,11,-179.159,0\C,44,1.44381,42,121.961,14,-62.5927,0\H,45,1.07542,44,118.828,42,-0.0524876,0\C,45,1.35445,44,122.213,42,179.952,0\H,47,1.07205,45,121.986,44,179.996,0\C,44,1.44679,42,120.904,14,117.398,0\H,49,1.07626,44,118.337,42,0.0409565,0\C,49,1.35527,44,122.197,42,-179.956,0\H,51,1.07535,49,120.875,44,180,0\C,51,1.45333,49,120.044,44,0.00139379,0\C,53,1.43891,51,121.167,49,179.961,0\H,54,1.09168,53,116.443,51,0.0273421,0\O,54,1.2119,53,123.239,51,-179.968,0\\HF=-1113.692\\@

 Total job time:  3296.64s(wall), 3290.53s(cpu) 
 Sat Mar  1 06:00:12 2014

        *************************************************************
        *                                                           *
        *  Thank you very much for using Q-Chem.  Have a nice day.  *
        *                                                           *
        *************************************************************


0 sent ACK to 0 
now end server 0 ... 
cleanup process ... done
