
Running Job 1 of 4 INP/mmm
qchem INP/mmm_36375.0 /home/qchem_scratch/qchem36375/ 1
/home/QCHEM/bin/mpi/mpirun_qchem -machinefile /home/QCHEM/bin/mpi/machines -np 1 /home/QCHEM/exe/qcprog.exe INP/mmm_36375.0 /home/qchem_scratch/qchem36375/

Process 0 of 1 is on fermi.chem.uh.edu - thread support 0
initial socket setup ...start
initial socket setup ...done 
now start server 0 ... 
                  Welcome to Q-Chem
     A Quantum Leap Into The Future Of Chemistry

 Y. Shao, L. Fusti-Molnar, Y. Jung, J. Kussmann, C. Ochsenfeld, S. T. Brown, 
 A. T. B. Gilbert, L. V. Slipchenko, S. V. Levchenko, D. P. O'Neill, 
 R. A. DiStasio Jr., R. C. Lochan, T. Wang, G. J. O. Beran, N. A. Besley, 
 J. M. Herbert, C. Y. Lin, T. Van Voorhis, S. H. Chien, A. Sodt, R. P. Steele, 
 V. A. Rassolov, P. E. Maslen, P. P. Korambath, R. D. Adamson, B. Austin, 
 J. Baker, E. F. C. Byrd, H. Dachsel, R. J. Doerksen, A. Dreuw, B. D. Dunietz, 
 A. D. Dutoi, T. R. Furlani, S. R. Gwaltney, A. Heyden, S. Hirata, C.-P. Hsu, 
 G. Kedziora, R. Z. Khaliullin, P. Klunzinger, A. M. Lee, M. S. Lee, W. Liang, 
 I. Lotan, N. Nair, B. Peters, E. I. Proynov, P. A. Pieniazek, Y. M. Rhee, 
 J. Ritchie, E. Rosta, C. D. Sherrill, A. C. Simmonett, J. E. Subotnik, 
 H. L. Woodcock III, W. Zhang, A. T. Bell, A. K. Chakraborty, D. M. Chipman, 
 F. J. Keil, A. Warshel, W. J. Hehre, H. F. Schaefer III, J. Kong, 
 A. I. Krylov, P. M. W. Gill, M. Head-Gordon

 Additional authors for Version 3.1: 
 Z. Gan, Y. Zhao, N. E. Schultz, D. Truhlar, E. Epifanovsky, M. Oana

 Additional authors for Version 3.2: 
 R. Baer, B. R. Brooks, D. Casanova, J.-D. Chai, C.-L. Cheng, C. Cramer, 
 D. Crittenden, A. Ghysels, G. Hawkins, E. G. Hohenstein, C. Kelley, 
 W. Kurlancheek, D. Liotard, E. Livshits, P. Manohar, A. Marenich, 
 D. Neuhauser, R. Olson, M. A. Rohrdanz, K. S. Thanthiriwatte, A. J. W. Thom, 
 V. Vanovschi, C. F. Williams, Q. Wu, Z.-Q. You

 Additional authors for Version 4.0: 
 A. Aspuru-Guzik, Y. Bernard, C. Chang, J. Deng, A. Dreuw, M. Diedenhofen, 
 R. G. Edgar, D. Ghosh, W. A. Goddard III, M. Goldey, L. D. Jacobson, 
 M. Gordon, B. Kaduk, I. Kaliman, K. Khistyaev, R. King, A. Klamt, 
 D. Kosenkov, T. Kus, D. Lambrecht, A. Landau, A. W. Lange, K. Lawler, F. Liu, 
 J. Liu, R. Olivares-Amaya, S. P. Mao, J. Parkhill, N. Russ, M. Schmidt, 
 N. Shenvi, D. Small, Y. C. Su, E. Sundstrom, L. Vogt, O. Vydrov, M. Watson, 
 M. Wormit, X. Xu, S. Yeganeh, I. Y. Zhang, D. Zuev

 Additional authors for Version 4.1: 
 X. Feng, M. W. D. Hanson-Heine, P. Horn, H. Ji, A. Laurent, R. Peverati, 
 N. Mardirossian, N. Sergueev, S. Sharada, P. Zimmerman

 Q-Chem, Version 4.1, Q-Chem, Inc., Pittsburgh, PA (2013).

 Parts of Q-Chem use Armadillo 3.6.2 (Piazza del Duomo).
 http://arma.sourceforge.net/

 Intel X86 Linux Version 4.1.2

 Q-chem begins on Fri Feb 28 08:30:07 2014  

Host: 
0

     Scratch files written to /home/qchem_scratch/qchem36375//
 Feb414 28838_zgan 2267   
 Parallel job on  1  processors
Processing $rem in /home/QCHEM/config/preferences.
 MEM_TOTAL  2000 
Finally everything over in PARseQInput

--------------------------------------------------------------
User input:
--------------------------------------------------------------
$comment
C1,3ea
$end
$molecule
0 1
C      -3.8419929279    -2.4456821618    -0.2690422332
C      -2.6081579205    -1.9079004937    -0.4533255368
C      -2.3809108010    -0.5226414883    -0.2376504594
C      -3.4569172426     0.2869401485     0.1713299491
C      -4.7349041861    -0.3020181167     0.3573413828
C      -4.9235046075    -1.6301445619     0.1432844555
H      -0.2894381774    -0.5682376025    -0.7380447964
H      -4.0043196036    -3.4959395508    -0.4355464269
H      -1.7857076241    -2.5274829045    -0.7665197945
C      -1.1004513260     0.0648792976    -0.4231050259
C      -3.2195426616     1.6704088468     0.3852245842
H      -5.5547126469     0.3211860290     0.6707161523
H      -5.8948950387    -2.0696487921     0.2854059362
C      -1.9844594898     2.2003668334     0.2016845644
C      -0.8891686620     1.3929537380    -0.2131152300
H      -4.0359144267     2.2971163665     0.7007106942
H      -1.8239466495     3.2513547824     0.3720935397
C       0.4638869377     2.0544918303    -0.4445577994
H       0.4951028424     2.4426504343    -1.4594919837
H       0.5294088124     2.9245121242     0.2080254041
C       1.6613532731     1.1754453019    -0.2133060963
C       1.9372633777     0.6714255815     1.1365768977
C       2.5643452548     0.8222956387    -1.2473216246
C       3.0170728042    -0.1015358081     1.3994301576
H       1.2542282181     0.9292951682     1.9263988906
C       3.6587904111     0.0412588689    -1.0162575132
H       2.3761552339     1.1841586041    -2.2435733502
C       3.9268051190    -0.4552844945     0.3432280438
H       3.2059507180    -0.4599134371     2.3959689767
H       4.3429306322    -0.2278976092    -1.7957176595
C       5.0798545363    -1.2789904248     0.6003230883
H       5.2187252084    -1.6118267753     1.6308432733
O       5.8687826459    -1.6008672566    -0.2594648103
$end

$rem
MEM_TOTAL	20000
MEM_STATIC	5000
JOBTYPE    freq 
SYMMETRY   FALSE
EXCHANGE     	HF
CORRELATION  	none  (built-in)
BASIS       	6-31g** 
cis_state_deriv   1
cis_n_roots       3
cis_singlets      false
cis_triplets      true
max_scf_cycles=100
max_cis_cycles=100
$end

--------------------------------------------------------------
 ----------------------------------------------------------------
             Standard Nuclear Orientation (Angstroms)
    I     Atom           X                Y                Z
 ----------------------------------------------------------------
    1      C      -3.8419929279    -2.4456821618    -0.2690422332
    2      C      -2.6081579205    -1.9079004937    -0.4533255368
    3      C      -2.3809108010    -0.5226414883    -0.2376504594
    4      C      -3.4569172426     0.2869401485     0.1713299491
    5      C      -4.7349041861    -0.3020181167     0.3573413828
    6      C      -4.9235046075    -1.6301445619     0.1432844555
    7      H      -0.2894381774    -0.5682376025    -0.7380447964
    8      H      -4.0043196036    -3.4959395508    -0.4355464269
    9      H      -1.7857076241    -2.5274829045    -0.7665197945
   10      C      -1.1004513260     0.0648792976    -0.4231050259
   11      C      -3.2195426616     1.6704088468     0.3852245842
   12      H      -5.5547126469     0.3211860290     0.6707161523
   13      H      -5.8948950387    -2.0696487921     0.2854059362
   14      C      -1.9844594898     2.2003668334     0.2016845644
   15      C      -0.8891686620     1.3929537380    -0.2131152300
   16      H      -4.0359144267     2.2971163665     0.7007106942
   17      H      -1.8239466495     3.2513547824     0.3720935397
   18      C       0.4638869377     2.0544918303    -0.4445577994
   19      H       0.4951028424     2.4426504343    -1.4594919837
   20      H       0.5294088124     2.9245121242     0.2080254041
   21      C       1.6613532731     1.1754453019    -0.2133060963
   22      C       1.9372633777     0.6714255815     1.1365768977
   23      C       2.5643452548     0.8222956387    -1.2473216246
   24      C       3.0170728042    -0.1015358081     1.3994301576
   25      H       1.2542282181     0.9292951682     1.9263988906
   26      C       3.6587904111     0.0412588689    -1.0162575132
   27      H       2.3761552339     1.1841586041    -2.2435733502
   28      C       3.9268051190    -0.4552844945     0.3432280438
   29      H       3.2059507180    -0.4599134371     2.3959689767
   30      H       4.3429306322    -0.2278976092    -1.7957176595
   31      C       5.0798545363    -1.2789904248     0.6003230883
   32      H       5.2187252084    -1.6118267753     1.6308432733
   33      O       5.8687826459    -1.6008672566    -0.2594648103
 ----------------------------------------------------------------
 Molecular Point Group                 C1    NOp =  1
 Largest Abelian Subgroup              C1    NOp =  1
 Nuclear Repulsion Energy =  1221.2895519845 hartrees
 There are       65 alpha and       65 beta electrons
 Requested basis set is 6-31G(d,p)
 There are 118 shells and 355 basis functions

Total QAlloc Memory Limit  20000 MB
Mega-Array Size      4888 MB
MEM_STATIC part      5000 MB
 A cutoff of  1.0D-11 yielded   4154 shell pairs
 There are     39478 function pairs
 Smallest overlap matrix eigenvalue = 2.65E-04
 Guess from superposition of atomic densities
 Warning:  Energy on first SCF cycle will be non-variational
 A restricted Hartree-Fock SCF calculation will be
 performed using Pulay DIIS extrapolation
 SCF converges when DIIS error is below 1.0E-08
 ---------------------------------------
  Cycle       Energy         DIIS Error
 ---------------------------------------
    1    -772.8155181286      4.33E-02
    2    -764.4132616664      3.53E-03
    3    -764.6183790139      2.06E-03
    4    -764.6685278311      6.52E-04
    5    -764.6761098069      9.34E-05
    6    -764.6763454207      4.60E-05
    7    -764.6764157220      2.09E-05
    8    -764.6764358426      9.43E-06
    9    -764.6764400886      3.35E-06
   10    -764.6764406425      1.51E-06
   11    -764.6764407816      7.43E-07
   12    -764.6764408314      3.03E-07
   13    -764.6764408375      1.22E-07
   14    -764.6764408385      3.78E-08
   15    -764.6764408379      1.50E-08
   16    -764.6764408369      4.08E-09 Convergence criterion met
 ---------------------------------------
 SCF time:  CPU 272.24 s  wall 276.18 s
 SCF   energy in the final basis set = -764.6764408369
 Total energy in the final basis set = -764.6764408369
 Direct RCIS calculation will be performed
 Triplet excitation energies requested
 CIS energy converged when residual is below 10e- 6
 ---------------------------------------------------
 Iter    Rts Conv    Rts Left    Ttl Dev     Max Dev
 ---------------------------------------------------
   1         0           3      0.001264    0.000574
   2         0           3      0.000807    0.000336
   3         0           3      0.000813    0.000511
   4         0           3      0.000376    0.000231
   5         0           3      0.000198    0.000149
   6         0           3      0.000152    0.000138
   7         0           3      0.000094    0.000089
   8         0           3      0.000097    0.000094
   9         2           1      0.000192    0.000191
  10         2           1      0.000074    0.000073
  11         2           1      0.000057    0.000056
  12         2           1      0.000109    0.000108
  13         2           1      0.000145    0.000144
  14         2           1      0.000057    0.000056
  15         2           1      0.000021    0.000020
  16         2           1      0.000011    0.000010
  17         2           1      0.000006    0.000005
  18         2           1      0.000006    0.000005
  19         2           1      0.000004    0.000003
  20         2           1      0.000004    0.000003
  21         2           1      0.000010    0.000009
  22         2           1      0.000186    0.000185
  23         2           1      0.000090    0.000089
  24         2           1      0.000041    0.000040
  25         2           1      0.000022    0.000021
  26         2           1      0.000011    0.000010
  27         2           1      0.000006    0.000005
  28         2           1      0.000004    0.000003
  29         2           1      0.000002    0.000002
  30         3           0      0.000001    0.000001    Roots Converged
 ---------------------------------------------------
 
 
 ---------------------------------------------------
               CIS Excitation Energies              
 ---------------------------------------------------

 Excited state   1: excitation energy (eV) =    2.5026
    Total energy for state   1:   -764.584472682899
    Multiplicity: Triplet 
    Trans. Mom.:  0.0000 X   0.0000 Y   0.0000 Z
    Strength   :  0.0000
    D( 62) --> V(  4) amplitude =  0.2581
    D( 63) --> V(  1) amplitude =  0.7655
    D( 64) --> V(  1) amplitude =  0.4195

 Excited state   2: excitation energy (eV) =    2.7621
    Total energy for state   2:   -764.574934754446
    Multiplicity: Triplet 
    Trans. Mom.:  0.0000 X   0.0000 Y   0.0000 Z
    Strength   :  0.0000
    D( 61) --> V(  5) amplitude =  0.3206
    D( 64) --> V(  3) amplitude = -0.2978
    D( 65) --> V(  2) amplitude =  0.7943

 Excited state   3: excitation energy (eV) =    4.0732
    Total energy for state   3:   -764.526752498204
    Multiplicity: Triplet 
    Trans. Mom.:  0.0000 X   0.0000 Y   0.0000 Z
    Strength   :  0.0000
    D( 60) --> V(  1) amplitude = -0.7944
    D( 60) --> V(  6) amplitude = -0.5254
 
 ---------------------------------------------------
 Calculating Relaxed Density
 ---------------------------------------------------
 Iter    Rts Conv    Rts Left    Ttl Dev     Max Dev
 ---------------------------------------------------
   1         0           3      0.000565    0.000284
   2         0           3      0.000180    0.000084
   3         0           3      0.000085    0.000039
   4         0           3      0.000028    0.000013
   5         0           3      0.000009    0.000004
   6         1           2      0.000003    0.000001
   7         3           0      0.000000    0.000000    Roots Converged
 ---------------------------------------------------
  Timing summary (seconds)
  CPU time       1243.06s
  System time       0.00s
  Wall time      1243.98s
 STSman time:  CPU 0.00 s  wall 0.00 s

 Analysis of SCF Wavefunction
 
 --------------------------------------------------------------
                    Orbital Energies (a.u.)
 --------------------------------------------------------------
 
 Alpha MOs
 -- Occupied --
-20.550 -11.324 -11.276 -11.259 -11.258 -11.251 -11.249 -11.248
-11.246 -11.245 -11.242 -11.241 -11.238 -11.235 -11.235 -11.235
-11.233 -11.233 -11.232  -1.381  -1.183  -1.160  -1.122  -1.071
 -1.048  -1.036  -1.015  -0.990  -0.954  -0.876  -0.847  -0.831
 -0.821  -0.813  -0.780  -0.707  -0.703  -0.700  -0.676  -0.663
 -0.643  -0.624  -0.619  -0.615  -0.603  -0.595  -0.585  -0.580
 -0.565  -0.560  -0.542  -0.535  -0.528  -0.510  -0.491  -0.487
 -0.476  -0.474  -0.443  -0.419  -0.383  -0.358  -0.323  -0.314
 -0.289
 -- Virtual --
  0.067   0.097   0.123   0.142   0.185   0.213   0.240   0.242
  0.250   0.256   0.267   0.279   0.281   0.300   0.312   0.318
  0.325   0.331   0.338   0.341   0.352   0.355   0.387   0.414
  0.417   0.426   0.436   0.450   0.470   0.481   0.487   0.497
  0.509   0.518   0.539   0.543   0.582   0.587   0.658   0.682
  0.691   0.712   0.721   0.730   0.731   0.731   0.739   0.745
  0.752   0.761   0.770   0.776   0.779   0.788   0.794   0.796
  0.801   0.814   0.820   0.823   0.826   0.836   0.846   0.851
  0.860   0.864   0.875   0.890   0.892   0.905   0.919   0.933
  0.949   0.954   0.965   0.978   1.015   1.024   1.037   1.042
  1.054   1.065   1.072   1.075   1.079   1.082   1.087   1.091
  1.093   1.109   1.117   1.120   1.124   1.130   1.165   1.168
  1.184   1.189   1.201   1.208   1.217   1.227   1.242   1.250
  1.261   1.276   1.299   1.305   1.314   1.325   1.355   1.373
  1.382   1.399   1.410   1.421   1.447   1.462   1.489   1.494
  1.499   1.503   1.520   1.540   1.571   1.590   1.596   1.607
  1.624   1.644   1.652   1.652   1.665   1.677   1.680   1.689
  1.698   1.704   1.719   1.741   1.753   1.763   1.797   1.817
  1.837   1.872   1.908   2.022   2.027   2.040   2.046   2.051
  2.059   2.075   2.085   2.102   2.112   2.117   2.134   2.150
  2.169   2.174   2.184   2.189   2.201   2.211   2.225   2.231
  2.235   2.242   2.254   2.261   2.272   2.282   2.299   2.301
  2.326   2.331   2.341   2.369   2.381   2.389   2.399   2.432
  2.444   2.446   2.462   2.509   2.521   2.542   2.550   2.567
  2.588   2.601   2.610   2.619   2.625   2.632   2.648   2.653
  2.676   2.700   2.707   2.715   2.719   2.736   2.743   2.745
  2.765   2.776   2.789   2.798   2.810   2.819   2.831   2.861
  2.864   2.878   2.888   2.892   2.899   2.917   2.941   2.948
  2.949   2.954   2.959   2.973   2.986   3.011   3.017   3.029
  3.049   3.057   3.082   3.089   3.108   3.134   3.148   3.174
  3.183   3.197   3.228   3.237   3.277   3.347   3.371   3.393
  3.416   3.442   3.468   3.522   3.535   3.549   3.617   3.628
  3.633   3.641   3.656   3.683   3.729   3.735   3.804   3.849
  3.870   3.887   3.892   3.917   4.161   4.199   4.312   4.360
  4.524   4.542   4.566   4.571   4.581   4.584   4.621   4.630
  4.734   4.761   4.824   4.847   4.894   4.920   4.973   5.106
  5.245   5.372
 --------------------------------------------------------------
 
          Ground-State Mulliken Net Atomic Charges

     Atom                 Charge (a.u.)
  ----------------------------------------
      1 C                    -0.158114
      2 C                    -0.126776
      3 C                    -0.032797
      4 C                    -0.039661
      5 C                    -0.126268
      6 C                    -0.158741
      7 H                     0.163383
      8 H                     0.152452
      9 H                     0.155160
     10 C                    -0.131009
     11 C                    -0.122074
     12 H                     0.152444
     13 H                     0.151824
     14 C                    -0.164663
     15 C                    -0.036371
     16 H                     0.155021
     17 H                     0.146956
     18 C                    -0.222263
     19 H                     0.150711
     20 H                     0.145743
     21 C                    -0.015075
     22 C                    -0.149006
     23 C                    -0.167936
     24 C                    -0.112725
     25 H                     0.160843
     26 C                    -0.085119
     27 H                     0.157255
     28 C                    -0.177531
     29 H                     0.166429
     30 H                     0.199313
     31 C                     0.396366
     32 H                     0.108597
     33 O                    -0.536373
  ----------------------------------------
  Sum of atomic charges =     0.000000

 -----------------------------------------------------------------
                    Cartesian Multipole Moments
 -----------------------------------------------------------------
    Charge (ESU x 10^10)
                 0.0000
    Dipole Moment (Debye)
         X      -3.4796      Y       1.8736      Z       1.3958
       Tot       4.1912
    Quadrupole Moments (Debye-Ang)
        XX    -130.6133     XY       8.3972     YY    -104.5486
        XZ       4.7771     YZ      -1.7292     ZZ    -106.8740
    Octopole Moments (Debye-Ang^2)
       XXX    -239.2301    XXY      46.3648    XYY     -34.8797
       YYY      -2.2055    XXZ      58.0593    XYZ     -24.7820
       YYZ       1.4082    XZZ      45.0373    YZZ      -0.6781
       ZZZ       1.2560
    Hexadecapole Moments (Debye-Ang^3)
      XXXX   -8550.6771   XXXY     395.0668   XXYY   -1539.1859
      XYYY      23.1590   YYYY   -1314.4544   XXXZ     140.1116
      XXYZ     -69.0949   XYYZ      16.6430   YYYZ      17.0509
      XXZZ   -1300.3423   XYZZ     -35.3099   YYZZ    -314.7993
      XZZZ      -0.4419   YZZZ     -15.1388   ZZZZ    -423.7673
 -----------------------------------------------------------------
 Calculating MO derivatives via CPSCF
Max. subspace vectors    = 18850
Dim. of subspace vectors = 37700
Room left in mega-array  = 625000000

 Q-Chem warning in module /home/scratch/svnadmin/28838_zgan/qchem/libcis/ov_dim.C, line 124:

 Static memory may be insufficient to store the subspace vectors

   1         3          99      0.169877    0.021420
   2         3          99      0.036704    0.005865
   3         3          99      0.007677    0.001602
   4         3          99      0.001118    0.000244
   5        63          39      0.000103    0.000026
   6        99           3      0.000006    0.000003
   7       102           0      0.000000    0.000000    Roots Converged
 Calculating CIS amplitude derivatives via CPCIS
 CIS relaxed dipole moment
            1
    1   0.1678010
    2  -0.0882138
    3   0.0772778
	Magnitude:	 0.205 au	 0.520 Debye
 CIS Excitation Energy is    0.0919681540
 Gradient of the CIS Excitation Energy
            1           2           3           4           5           6
    1   0.0001192   0.0000489   0.0000954   0.0000986  -0.0001411   0.0000124
    2  -0.0000039  -0.0001156   0.0002855   0.0002122  -0.0000486   0.0001371
    3  -0.0000383  -0.0000792  -0.0000238   0.0000202   0.0000335   0.0000175
            7           8           9          10          11          12
    1  -0.0003810   0.0000157  -0.0000079  -0.0001336  -0.0001108   0.0000080
    2  -0.0000796   0.0000181   0.0000181   0.0000161  -0.0003177  -0.0000071
    3   0.0003921   0.0000073   0.0000306  -0.0007353  -0.0000712   0.0000051
           13          14          15          16          17          18
    1   0.0000090   0.0007767   0.0002778   0.0001038  -0.0000806  -0.0046703
    2   0.0000095   0.0004861  -0.0013813   0.0000167   0.0000211   0.0037535
    3   0.0000019  -0.0003335  -0.0000124   0.0000322   0.0000455  -0.0015305
           19          20          21          22          23          24
    1   0.0001230   0.0013647   0.0337460  -0.0298181  -0.0313871   0.0416526
    2  -0.0001344  -0.0020146  -0.0298786   0.0323955   0.0173572  -0.0202169
    3  -0.0000413  -0.0009355   0.0369887  -0.0504593   0.0132442  -0.0325421
           25          26          27          28          29          30
    1  -0.0007235   0.0217627  -0.0005343  -0.0519759  -0.0000257   0.0007179
    2   0.0006157  -0.0304489   0.0004412   0.0419713  -0.0001232  -0.0003246
    3  -0.0006476   0.0687775  -0.0001075  -0.0323101   0.0007819  -0.0008064
           31          32          33
    1   0.0330621   0.0004333  -0.0144381
    2  -0.0164007  -0.0005724   0.0043131
    3  -0.0233915   0.0012924   0.0223950
gradient:-0.000119
gradient:0.000006
gradient:0.000039
gradient:-0.000048
gradient:0.000123
gradient:0.000080
gradient:-0.000093
gradient:-0.000293
gradient:0.000022
gradient:-0.000099
gradient:-0.000213
gradient:-0.000020
gradient:0.000141
gradient:0.000049
gradient:-0.000033
gradient:-0.000010
gradient:-0.000142
gradient:-0.000019
gradient:0.000376
gradient:0.000081
gradient:-0.000391
gradient:-0.000016
gradient:-0.000017
gradient:-0.000007
gradient:0.000007
gradient:-0.000016
gradient:-0.000030
gradient:0.000134
gradient:-0.000013
gradient:0.000735
gradient:0.000112
gradient:0.000322
gradient:0.000072
gradient:-0.000011
gradient:0.000008
gradient:-0.000005
gradient:-0.000009
gradient:-0.000011
gradient:-0.000002
gradient:-0.000773
gradient:-0.000488
gradient:0.000332
gradient:-0.000275
gradient:0.001380
gradient:0.000010
gradient:-0.000104
gradient:-0.000014
gradient:-0.000032
gradient:0.000082
gradient:-0.000024
gradient:-0.000047
gradient:0.004662
gradient:-0.003753
gradient:0.001539
gradient:-0.000126
gradient:0.000136
gradient:0.000042
gradient:-0.001369
gradient:0.002013
gradient:0.000932
gradient:-0.033752
gradient:0.029875
gradient:-0.036961
gradient:0.029810
gradient:-0.032385
gradient:0.050436
gradient:0.031416
gradient:-0.017375
gradient:-0.013248
gradient:-0.041644
gradient:0.020213
gradient:0.032537
gradient:0.000724
gradient:-0.000617
gradient:0.000649
gradient:-0.021782
gradient:0.030464
gradient:-0.068786
gradient:0.000536
gradient:-0.000442
gradient:0.000107
gradient:0.051953
gradient:-0.041956
gradient:0.032311
gradient:0.000027
gradient:0.000122
gradient:-0.000781
gradient:-0.000714
gradient:0.000322
gradient:0.000805
gradient:-0.033067
gradient:0.016398
gradient:0.023421
gradient:-0.000431
gradient:0.000570
gradient:-0.001289
gradient:0.014461
gradient:-0.004323
gradient:-0.022419
gradient:0.167708
gradient:-0.088130
gradient:0.077364
   1         7          95      0.022508    0.004398
   2        26          76      0.004274    0.000641
   3        33          69      0.000932    0.000110
   4        51          51      0.000246    0.000030
   5        89          13      0.000030    0.000007
   6       100           2      0.000003    0.000001
   7       102           0      0.000000    0.000000    Roots Converged
 CPCIS time:  CPU 2958.14 s  wall 2960.42 s
 transition dipole derivative
            1           2           3
    1   0.0196198  -0.0101994  -0.0096191
    2   0.0017608   0.0015014  -0.0002748
    3  -0.0033708   0.0015491   0.0031791
    4  -0.0106783   0.0023667   0.0070498
    5  -0.0117854   0.0014907   0.0053024
    6  -0.0058418   0.0006690   0.0019614
    7   0.0069803   0.0032082  -0.0108525
    8   0.0060615   0.0079520  -0.0056639
    9  -0.0017490   0.0000766   0.0040542
   10   0.0002957  -0.0031886  -0.0013049
   11  -0.0006243  -0.0049999  -0.0090350
   12   0.0000991   0.0067677  -0.0008337
   13  -0.0027894   0.0049286   0.0025265
   14  -0.0051127   0.0090894   0.0066818
   15  -0.0004878   0.0020444   0.0017785
   16  -0.0026163   0.0013671   0.0028187
   17   0.0133489  -0.0140853  -0.0082602
   18   0.0021513  -0.0020216  -0.0022063
   19   0.0067561   0.0041809   0.0070123
   20  -0.0086731   0.0104789   0.0086721
   21   0.0071430  -0.0028082  -0.0193133
   22   0.0010804  -0.0006517  -0.0002574
   23   0.0008001  -0.0006626   0.0003582
   24   0.0010533  -0.0005467  -0.0007224
   25  -0.0007051   0.0005035  -0.0001922
   26  -0.0003772   0.0003711   0.0003125
   27   0.0011899  -0.0002400  -0.0013498
   28  -0.0195769  -0.0040659   0.0172227
   29   0.0189886  -0.0247217  -0.0164969
   30  -0.0222224   0.0250383   0.0235381
   31   0.0221672  -0.0085481  -0.0005532
   32   0.0046993  -0.0043419   0.0051444
   33  -0.0020719   0.0046866   0.0029484
   34   0.0009234  -0.0010347  -0.0002884
   35  -0.0004369   0.0005357   0.0000479
   36   0.0007092  -0.0015451  -0.0010275
   37   0.0007507  -0.0005226   0.0001814
   38   0.0005549  -0.0003391   0.0000620
   39   0.0003019  -0.0003709  -0.0002703
   40  -0.0216248   0.0264896  -0.0000662
   41   0.0151515  -0.0047962  -0.0031143
   42  -0.0008010   0.0254808   0.0184216
   43  -0.1339953   0.0390628   0.0254152
   44  -0.0752554  -0.0019499   0.0137019
   45   0.0289314  -0.0669667  -0.0113255
   46   0.0022876  -0.0021185  -0.0014733
   47   0.0004066   0.0017892   0.0005684
   48   0.0041164  -0.0088098  -0.0051400
   49   0.0000834   0.0002939  -0.0001088
   50   0.0004742   0.0001737   0.0002069
   51  -0.0000982  -0.0012033  -0.0015354
   52   0.3528720  -0.1010426   0.0208872
   53  -0.0441378   0.2533634   0.0159892
   54  -0.0235546   0.0434415   0.0464620
   55  -0.0077315  -0.0121227   0.0185800
   56   0.0086182  -0.0004378  -0.0188908
   57  -0.0053823  -0.0002324   0.0172781
   58  -0.0441264   0.0080591  -0.0050338
   59   0.0243327  -0.0801477   0.0017867
   60   0.0222738  -0.0509728  -0.0003981
   61  -1.7394836   0.3578231   0.7139007
   62   0.1870068  -1.0442416   0.1002632
   63   1.3796535  -0.3012381  -3.3664293
   64   1.8627378  -0.8586520   0.4102885
   65  -0.7872739   1.3127177  -0.5485435
   66   0.2087854  -0.3667771   1.7287038
   67   2.9537886  -1.2186411  -1.3680950
   68  -1.3688946   1.3089604   0.7022601
   69  -0.8037935   0.3187400   1.4248656
   70  -2.8720286   1.2940609   0.8712500
   71   1.3502666  -1.3641295  -0.4245189
   72   0.7062926  -0.3201804  -1.2094838
   73  -0.0470413  -0.0312621   0.0124711
   74  -0.0302111  -0.0646450  -0.0299681
   75   0.0002692  -0.0221936  -0.0023002
   76  -2.0634330   0.8353023   0.0190820
   77   0.9067312  -1.3938520   0.1624012
   78  -0.1964473   0.3023767  -1.5289933
   79  -0.0112385  -0.0325942  -0.0259830
   80  -0.0369151  -0.0455595   0.0049551
   81  -0.0202465  -0.0015059  -0.0056737
   82   2.3209470  -0.7236330  -0.9114081
   83  -0.7102598   1.2979995   0.2029251
   84  -1.0103456   0.2780935   2.5871276
   85   0.0152761   0.0348044   0.0067383
   86   0.0350277   0.0467774   0.0056247
   87  -0.0008537   0.0097450   0.0316801
   88   0.0464331   0.0434703  -0.0029293
   89   0.0423737   0.0786621   0.0190486
   90  -0.0142275   0.0246772   0.0443378
   91  -1.6722180   0.7023498   0.8699066
   92   0.7506950  -0.6695104  -0.4771359
   93   0.7078147  -0.3708327  -0.7135748
   94   0.0056039   0.0285408  -0.0158588
   95   0.0284736   0.0223250   0.0105187
   96  -0.0171149   0.0116822   0.0440450
   97   1.0306840  -0.3785350  -0.6513069
   98  -0.3158147   0.3642325   0.2750711
   99  -0.9421760   0.4633766   0.8901962
mem use when entering cis_hess,0,625000000
mem use when entering PV,0,625000000
mem use when entering PT + WS,0,625000000
mem use when entering II^xy,0,625000000
mem use when entering PCM,0,625000000
mem use when entering E^xy,0,625000000
mem use when entering PF,0,625000000
mem use when entering ws,0,625000000
mem use when entering RPA_Hess_IIx,0,625000000
Nshell = 118 
s2Bra.ftnCode() = 360011 
 hess cis_hess_iirx
            1           2           3           4           5           6
    1  -0.0000827  -0.0000144  -0.0001033   0.0001293   0.0000164   0.0001423
    2  -0.0000144  -0.0000156  -0.0000067   0.0000009   0.0000010   0.0000270
    3  -0.0001033  -0.0000067  -0.0002417   0.0002509   0.0000471   0.0002453
    4   0.0001293   0.0000009   0.0002509  -0.0006931  -0.0002631  -0.0001324
    5   0.0000164   0.0000010   0.0000471  -0.0002631  -0.0001591   0.0000502
    6   0.0001423   0.0000270   0.0002453  -0.0001324   0.0000502  -0.0004208
    7  -0.0002076  -0.0000204  -0.0004333   0.0014298   0.0005154   0.0003296
    8   0.0002086   0.0000964   0.0001958   0.0003471   0.0004829  -0.0010748
    9  -0.0001683  -0.0000513  -0.0002193   0.0000667  -0.0001806   0.0007096
   10   0.0000058  -0.0000365   0.0001424  -0.0009248  -0.0004801   0.0003696
   11   0.0000087  -0.0000180   0.0000403  -0.0002635  -0.0001376   0.0001139
   12   0.0000167   0.0000366  -0.0000566   0.0002375   0.0001400  -0.0001441
   13   0.0000287   0.0000102   0.0000277  -0.0000064   0.0000222  -0.0000883
   14   0.0000013   0.0000063   0.0000004  -0.0000156  -0.0000080  -0.0000094
   15   0.0000253  -0.0000148   0.0000998  -0.0002125  -0.0000992   0.0000205
   16   0.0000016  -0.0000008  -0.0000042  -0.0000105  -0.0000110   0.0000190
   17   0.0000132   0.0000054   0.0000211  -0.0000090   0.0000074  -0.0000375
   18  -0.0000409  -0.0000074  -0.0000527   0.0000457  -0.0000109   0.0001058
   19  -0.0000849  -0.0001097   0.0000685  -0.0010539  -0.0006895   0.0009158
   20  -0.0000459  -0.0000658   0.0000487  -0.0006193  -0.0004020   0.0005149
   21  -0.0000052  -0.0000079   0.0000093  -0.0000600  -0.0000474   0.0000840
   22   0.0000010   0.0000008  -0.0000023   0.0000027   0.0000018  -0.0000005
   23   0.0000035   0.0000021   0.0000018   0.0000003   0.0000021  -0.0000067
   24  -0.0000053  -0.0000020  -0.0000019   0.0000002  -0.0000030   0.0000102
   25  -0.0000120  -0.0000053  -0.0000118   0.0000320   0.0000048   0.0000234
   26  -0.0000148  -0.0000067  -0.0000147   0.0000323   0.0000042   0.0000322
   27   0.0000119   0.0000030   0.0000146  -0.0000280  -0.0000034  -0.0000214
   28   0.0000814   0.0000996  -0.0001107   0.0000910   0.0005672  -0.0011660
   29  -0.0000322   0.0000413  -0.0001520   0.0010866   0.0004458  -0.0001987
   30   0.0002057   0.0000557   0.0003230  -0.0001198   0.0001921  -0.0009116
   31   0.0000735   0.0000416   0.0000435   0.0003324   0.0002329  -0.0004132
   32  -0.0000434  -0.0000176  -0.0000277  -0.0001510  -0.0000949   0.0001903
   33   0.0000187  -0.0000189   0.0000660  -0.0002510  -0.0001034   0.0000144
   34  -0.0000050  -0.0000021  -0.0000055   0.0000075   0.0000003   0.0000121
   35  -0.0000054  -0.0000021  -0.0000061   0.0000077  -0.0000006   0.0000136
   36   0.0000013  -0.0000000   0.0000031  -0.0000017   0.0000015  -0.0000054
   37  -0.0000034  -0.0000011  -0.0000043   0.0000022  -0.0000011   0.0000082
   38   0.0000014   0.0000002   0.0000022  -0.0000014   0.0000003  -0.0000033
   39  -0.0000161  -0.0000048  -0.0000194   0.0000091  -0.0000053   0.0000380
   40   0.0000801   0.0000277   0.0000758  -0.0000159   0.0000832  -0.0003775
   41   0.0000741   0.0000342   0.0000958   0.0001628   0.0001339  -0.0003368
   42   0.0000472   0.0000157   0.0000471   0.0000899   0.0000827  -0.0002234
   43   0.0000361   0.0000404  -0.0000504   0.0013443   0.0002922   0.0002571
   44  -0.0001376  -0.0000826  -0.0001499  -0.0008753  -0.0003860   0.0005305
   45  -0.0001490  -0.0000415  -0.0001941  -0.0000715  -0.0001160   0.0005449
   46  -0.0000005  -0.0000014   0.0000032  -0.0000282  -0.0000142   0.0000136
   47  -0.0000004  -0.0000005   0.0000007  -0.0000081  -0.0000047   0.0000058
   48   0.0000002   0.0000010  -0.0000035   0.0000242   0.0000131  -0.0000152
   49  -0.0000195  -0.0000075  -0.0000244  -0.0000022  -0.0000176   0.0000809
   50  -0.0000078  -0.0000029  -0.0000105  -0.0000004  -0.0000074   0.0000336
   51   0.0000012   0.0000006   0.0000055   0.0000011   0.0000041  -0.0000123
   52   0.0000968  -0.0000360   0.0002406  -0.0008414  -0.0002534  -0.0002154
   53   0.0001855   0.0000163   0.0000413   0.0005452   0.0000394  -0.0002046
   54   0.0000378  -0.0000028   0.0000690  -0.0000559  -0.0000162  -0.0001065
   55  -0.0000036  -0.0000029  -0.0000055   0.0000097   0.0000025   0.0000065
   56  -0.0000004  -0.0000007  -0.0000035   0.0000064  -0.0000000   0.0000047
   57  -0.0000009  -0.0000006  -0.0000027   0.0000042   0.0000004   0.0000045
   58   0.0000498   0.0000102   0.0000567  -0.0000798  -0.0000226  -0.0001239
   59  -0.0000266  -0.0000081  -0.0000302   0.0000822   0.0000234   0.0000612
   60  -0.0000142  -0.0000038   0.0000040  -0.0000047   0.0000073   0.0000171
   61  -0.0000720   0.0000346   0.0000214   0.0001046   0.0001088  -0.0001853
   62  -0.0001075   0.0000425   0.0000570  -0.0001587   0.0002244  -0.0001909
   63   0.0000288   0.0000307  -0.0000675   0.0000278   0.0000150  -0.0000310
   64  -0.0001400  -0.0000047  -0.0002771   0.0003942   0.0000244   0.0004434
   65  -0.0001146  -0.0000149  -0.0003910   0.0003157  -0.0000592   0.0005849
   66  -0.0000673  -0.0000141  -0.0000972   0.0002174   0.0000660   0.0002063
   67   0.0000089  -0.0000254   0.0000524  -0.0001581  -0.0001013   0.0001745
   68   0.0000208  -0.0000086   0.0001439  -0.0000259  -0.0000721  -0.0000249
   69  -0.0000051   0.0000037   0.0000562   0.0000310  -0.0000016  -0.0000560
   70   0.0000200  -0.0000033  -0.0000596  -0.0000369  -0.0000102   0.0000511
   71  -0.0000582   0.0000116  -0.0000799   0.0001519   0.0000347   0.0000974
   72   0.0000034   0.0000051  -0.0000284   0.0000353  -0.0000121   0.0000180
   73   0.0000002  -0.0000007  -0.0000020  -0.0000007   0.0000000   0.0000001
   74   0.0000005  -0.0000016  -0.0000016  -0.0000011  -0.0000004  -0.0000018
   75   0.0000005  -0.0000006   0.0000005  -0.0000010  -0.0000007  -0.0000019
   76   0.0000211   0.0000019   0.0001160  -0.0000573  -0.0000089  -0.0001048
   77   0.0000705  -0.0000043   0.0001745  -0.0003211  -0.0000879  -0.0001207
   78   0.0000225   0.0000008   0.0000427  -0.0000682  -0.0000232  -0.0000501
   79   0.0000004  -0.0000001   0.0000010  -0.0000005   0.0000003  -0.0000016
   80   0.0000003  -0.0000004   0.0000019  -0.0000029  -0.0000008  -0.0000014
   81   0.0000000  -0.0000001   0.0000003  -0.0000005  -0.0000003   0.0000007
   82  -0.0000104   0.0000031  -0.0000119   0.0000760   0.0000200  -0.0000555
   83  -0.0000021  -0.0000061  -0.0000199  -0.0000238   0.0000450  -0.0000510
   84   0.0000143  -0.0000021  -0.0000062  -0.0000232   0.0000057  -0.0000279
   85  -0.0000021  -0.0000002  -0.0000044   0.0000074   0.0000011   0.0000064
   86  -0.0000032  -0.0000003  -0.0000069   0.0000122   0.0000021   0.0000098
   87  -0.0000009  -0.0000001  -0.0000012   0.0000015   0.0000001   0.0000021
   88   0.0000042   0.0000004   0.0000111  -0.0000193  -0.0000116  -0.0000006
   89   0.0000062   0.0000003   0.0000173  -0.0000318  -0.0000191   0.0000003
   90   0.0000013  -0.0000001   0.0000044  -0.0000086  -0.0000053   0.0000011
   91  -0.0000020   0.0000015  -0.0000048  -0.0000578   0.0000038   0.0000296
   92   0.0000047   0.0000010   0.0000003   0.0000368  -0.0000061  -0.0000089
   93   0.0000017   0.0000004  -0.0000021   0.0000252  -0.0000034  -0.0000064
   94  -0.0000006  -0.0000005  -0.0000003   0.0000043   0.0000022  -0.0000003
   95  -0.0000009  -0.0000008  -0.0000006   0.0000063   0.0000030  -0.0000004
   96  -0.0000002  -0.0000002  -0.0000001   0.0000011   0.0000008  -0.0000001
   97   0.0000076   0.0000000   0.0000048   0.0000193  -0.0000145  -0.0000177
   98  -0.0000003  -0.0000011   0.0000111  -0.0000225  -0.0000038   0.0000016
   99  -0.0000041  -0.0000005   0.0000037  -0.0000296   0.0000062   0.0000118
            7           8           9          10          11          12
    1  -0.0002076   0.0002086  -0.0001683   0.0000058   0.0000087   0.0000167
    2  -0.0000204   0.0000964  -0.0000513  -0.0000365  -0.0000180   0.0000366
    3  -0.0004333   0.0001958  -0.0002193   0.0001424   0.0000403  -0.0000566
    4   0.0014298   0.0003471   0.0000667  -0.0009248  -0.0002635   0.0002375
    5   0.0005154   0.0004829  -0.0001806  -0.0004801  -0.0001376   0.0001400
    6   0.0003296  -0.0010748   0.0007096   0.0003696   0.0001139  -0.0001441
    7  -0.0063342   0.0023322  -0.0019821   0.0017526   0.0004772  -0.0004863
    8   0.0023322  -0.0111146   0.0054015   0.0054410   0.0016250  -0.0014651
    9  -0.0019821   0.0054015  -0.0037966  -0.0020512  -0.0005618   0.0004442
   10   0.0017526   0.0054410  -0.0020512  -0.0052154  -0.0015802   0.0013272
   11   0.0004772   0.0016250  -0.0005618  -0.0015802  -0.0005372   0.0004991
   12  -0.0004863  -0.0014651   0.0004442   0.0013272   0.0004991  -0.0012451
   13   0.0001681  -0.0004093   0.0002383   0.0002302   0.0000758  -0.0001442
   14   0.0000892  -0.0000008   0.0000280  -0.0000281  -0.0000004  -0.0000198
   15   0.0003029   0.0008942  -0.0003785  -0.0008414  -0.0002945   0.0005868
   16  -0.0000196   0.0000779  -0.0000534  -0.0000326  -0.0000139   0.0000118
   17   0.0000544  -0.0000975   0.0000698   0.0000226   0.0000092  -0.0000191
   18  -0.0002224   0.0002510  -0.0002296  -0.0000135   0.0000030  -0.0000428
   19   0.0014150   0.0113270  -0.0048872  -0.0066724  -0.0017925   0.0009196
   20   0.0008045   0.0065748  -0.0026504  -0.0038924  -0.0010677   0.0005801
   21   0.0000529   0.0009954  -0.0008796  -0.0005347  -0.0001055  -0.0000034
   22  -0.0000038  -0.0000093   0.0000038   0.0000064   0.0000027  -0.0000051
   23  -0.0000022  -0.0000186   0.0000114   0.0000089   0.0000033  -0.0000055
   24   0.0000039   0.0000240  -0.0000190  -0.0000117  -0.0000027   0.0000056
   25  -0.0001067   0.0001320  -0.0000795  -0.0000024  -0.0000041   0.0000169
   26  -0.0001277   0.0001775  -0.0001112  -0.0000111  -0.0000079   0.0000203
   27   0.0000969  -0.0001289   0.0001099  -0.0000002  -0.0000007  -0.0000085
   28   0.0160299  -0.0281184   0.0145407   0.0087004   0.0028034  -0.0004505
   29  -0.0065957  -0.0004916  -0.0012631   0.0034125   0.0008456  -0.0006212
   30   0.0014637  -0.0074794   0.0055278   0.0034010   0.0007959  -0.0001860
   31   0.0000793  -0.0047902   0.0020602   0.0041419   0.0012874  -0.0007922
   32   0.0002164   0.0019636  -0.0008318  -0.0017471  -0.0005195   0.0004094
   33   0.0009420   0.0011756  -0.0000115  -0.0016885  -0.0005587   0.0008033
   34  -0.0000458   0.0000369  -0.0000301  -0.0000094  -0.0000038   0.0000039
   35  -0.0000497   0.0000434  -0.0000347  -0.0000103  -0.0000054   0.0000067
   36   0.0000126  -0.0000144   0.0000145   0.0000040   0.0000004   0.0000030
   37  -0.0000056   0.0000203  -0.0000141  -0.0000090  -0.0000032   0.0000110
   38   0.0000026  -0.0000060   0.0000055   0.0000022   0.0000008  -0.0000033
   39  -0.0000250   0.0000978  -0.0000672  -0.0000427  -0.0000151   0.0000502
   40   0.0022543  -0.0053466   0.0025747   0.0031015   0.0010274   0.0003020
   41  -0.0006499  -0.0033599   0.0012342   0.0029113   0.0008681  -0.0006773
   42  -0.0000448  -0.0023788   0.0013489   0.0018852   0.0004907  -0.0000952
   43  -0.0194113   0.0216042  -0.0114728  -0.0064548  -0.0023557  -0.0012517
   44   0.0097387  -0.0040634   0.0031459  -0.0009390  -0.0000899   0.0016178
   45   0.0014409   0.0030904  -0.0022641  -0.0022989  -0.0004696  -0.0001035
   46   0.0000292   0.0002355  -0.0000765  -0.0002631  -0.0000822   0.0000646
   47  -0.0000011   0.0000801  -0.0000461  -0.0000734  -0.0000257   0.0000023
   48  -0.0000326  -0.0002208   0.0001384   0.0002308   0.0000604  -0.0000416
   49  -0.0001845   0.0009285  -0.0003877  -0.0006301  -0.0002037   0.0000078
   50  -0.0000832   0.0003867  -0.0001680  -0.0002590  -0.0000838  -0.0000049
   51   0.0000208  -0.0001270   0.0000805   0.0000787   0.0000178   0.0000134
   52   0.0020710  -0.0025452   0.0012627   0.0004699   0.0002106   0.0005110
   53  -0.0100618   0.0114562  -0.0055761  -0.0048827  -0.0013078  -0.0001429
   54  -0.0009446   0.0006778  -0.0001142  -0.0003609  -0.0001439   0.0001890
   55   0.0000608   0.0000281   0.0000047   0.0000076   0.0000052   0.0000253
   56  -0.0000185   0.0000779  -0.0000373  -0.0000146   0.0000012   0.0000104
   57  -0.0000086   0.0000451  -0.0000260  -0.0000059   0.0000014   0.0000065
   58   0.0001101  -0.0009831   0.0004023   0.0003062   0.0000967  -0.0003085
   59  -0.0002570   0.0007566  -0.0002922  -0.0001815  -0.0000669   0.0002086
   60   0.0000447   0.0000890   0.0000157  -0.0000654  -0.0000300   0.0000153
   61   0.0051146  -0.0069409   0.0035183   0.0025528   0.0007121  -0.0005024
   62   0.0069276  -0.0095370   0.0048566   0.0030275   0.0008671  -0.0007938
   63   0.0010037  -0.0013390   0.0001123   0.0005055   0.0002798  -0.0002543
   64  -0.0005977   0.0020877  -0.0010805   0.0001810   0.0000078   0.0005843
   65   0.0007454   0.0018907  -0.0008768   0.0003992   0.0002678   0.0007620
   66  -0.0011430   0.0017136  -0.0005283  -0.0000797  -0.0000712   0.0003250
   67  -0.0038238   0.0050835  -0.0026249  -0.0013867  -0.0004242   0.0001472
   68  -0.0044355   0.0036990  -0.0021460  -0.0009473  -0.0004802  -0.0002316
   69  -0.0006937  -0.0000479  -0.0000905  -0.0000051  -0.0001077  -0.0001681
   70   0.0004310  -0.0001611   0.0000596   0.0001489   0.0001017   0.0001799
   71   0.0000736  -0.0002534  -0.0001657   0.0002354  -0.0000646   0.0001631
   72   0.0000261   0.0000128  -0.0001079   0.0000588   0.0000228   0.0000410
   73   0.0000226  -0.0000315   0.0000560   0.0000160   0.0000010   0.0000088
   74   0.0000348  -0.0000459   0.0001027   0.0000202   0.0000015   0.0000166
   75   0.0000130  -0.0000160   0.0000342   0.0000058   0.0000014   0.0000037
   76  -0.0007214   0.0000044  -0.0003345  -0.0001362  -0.0001134  -0.0005740
   77  -0.0004702   0.0003560  -0.0006986  -0.0004956  -0.0001183  -0.0007669
   78  -0.0000429  -0.0001283  -0.0000481  -0.0000686  -0.0000102  -0.0002120
   79   0.0000038  -0.0000300   0.0000099   0.0000125   0.0000021  -0.0000144
   80   0.0000108  -0.0000262   0.0000113   0.0000085   0.0000004  -0.0000189
   81   0.0000005   0.0000020  -0.0000020  -0.0000006   0.0000001  -0.0000032
   82   0.0006579  -0.0009245   0.0007005   0.0002250   0.0000372   0.0001028
   83   0.0009465  -0.0009104   0.0010459   0.0001715   0.0000903   0.0002511
   84   0.0003788  -0.0003787   0.0003219   0.0001009   0.0000619   0.0000559
   85   0.0000008   0.0000303  -0.0000115   0.0000082   0.0000037   0.0000065
   86  -0.0000030   0.0000450  -0.0000173   0.0000139   0.0000059   0.0000098
   87   0.0000076   0.0000046   0.0000006   0.0000024   0.0000011   0.0000021
   88  -0.0001480   0.0001998  -0.0001124  -0.0000851  -0.0000283  -0.0000159
   89  -0.0002100   0.0003055  -0.0001699  -0.0001311  -0.0000430  -0.0000218
   90  -0.0000445   0.0000789  -0.0000418  -0.0000329  -0.0000109  -0.0000026
   91   0.0000003   0.0001520  -0.0001087  -0.0000635   0.0000025   0.0000785
   92   0.0000657  -0.0001969   0.0000399   0.0000667  -0.0000113   0.0000692
   93  -0.0000133  -0.0000116  -0.0000009   0.0000259  -0.0000046   0.0000215
   94   0.0000102  -0.0000091   0.0000006   0.0000115   0.0000069  -0.0000055
   95   0.0000174  -0.0000138   0.0000002   0.0000176   0.0000108  -0.0000084
   96   0.0000034  -0.0000031   0.0000008   0.0000034   0.0000025  -0.0000022
   97  -0.0000312   0.0000222  -0.0000239   0.0000071  -0.0000013  -0.0000128
   98  -0.0000664   0.0001190  -0.0000743  -0.0000491  -0.0000116  -0.0000030
   99  -0.0000270   0.0000643  -0.0000341  -0.0000396  -0.0000052   0.0000026
           13          14          15          16          17          18
    1   0.0000287   0.0000013   0.0000253   0.0000016   0.0000132  -0.0000409
    2   0.0000102   0.0000063  -0.0000148  -0.0000008   0.0000054  -0.0000074
    3   0.0000277   0.0000004   0.0000998  -0.0000042   0.0000211  -0.0000527
    4  -0.0000064  -0.0000156  -0.0002125  -0.0000105  -0.0000090   0.0000457
    5   0.0000222  -0.0000080  -0.0000992  -0.0000110   0.0000074  -0.0000109
    6  -0.0000883  -0.0000094   0.0000205   0.0000190  -0.0000375   0.0001058
    7   0.0001681   0.0000892   0.0003029  -0.0000196   0.0000544  -0.0002224
    8  -0.0004093  -0.0000008   0.0008942   0.0000779  -0.0000975   0.0002510
    9   0.0002383   0.0000280  -0.0003785  -0.0000534   0.0000698  -0.0002296
   10   0.0002302  -0.0000281  -0.0008414  -0.0000326   0.0000226  -0.0000135
   11   0.0000758  -0.0000004  -0.0002945  -0.0000139   0.0000092   0.0000030
   12  -0.0001442  -0.0000198   0.0005868   0.0000118  -0.0000191  -0.0000428
   13  -0.0000893  -0.0000290   0.0000823   0.0000144  -0.0000130   0.0000454
   14  -0.0000290  -0.0000305   0.0000211   0.0000015   0.0000050   0.0000062
   15   0.0000823   0.0000211  -0.0004944  -0.0000021  -0.0000047   0.0001076
   16   0.0000144   0.0000015  -0.0000021  -0.0000145   0.0000073  -0.0000249
   17  -0.0000130   0.0000050  -0.0000047   0.0000073  -0.0000175   0.0000296
   18   0.0000454   0.0000062   0.0001076  -0.0000249   0.0000296  -0.0001525
   19   0.0001886  -0.0000554  -0.0007995  -0.0000646   0.0000600  -0.0001305
   20   0.0001174  -0.0000321  -0.0004639  -0.0000386   0.0000368  -0.0000776
   21   0.0000132  -0.0000017  -0.0000991  -0.0000090   0.0000066  -0.0000218
   22  -0.0000011  -0.0000004   0.0000027   0.0000003  -0.0000006   0.0000011
   23  -0.0000023  -0.0000007   0.0000013   0.0000005  -0.0000008   0.0000026
   24   0.0000036  -0.0000004  -0.0000003  -0.0000011   0.0000017  -0.0000065
   25   0.0000097   0.0000029  -0.0000052  -0.0000027   0.0000043  -0.0000120
   26   0.0000128   0.0000035  -0.0000074  -0.0000037   0.0000052  -0.0000166
   27  -0.0000092  -0.0000020   0.0000035   0.0000034  -0.0000040   0.0000154
   28  -0.0008436  -0.0001046   0.0011419   0.0001638  -0.0001590   0.0006458
   29   0.0001590   0.0001199   0.0003296   0.0000003   0.0000173  -0.0001860
   30  -0.0002086   0.0000180   0.0004275   0.0000565  -0.0000829   0.0002443
   31  -0.0002418  -0.0000201   0.0004363   0.0000371  -0.0000564   0.0001752
   32   0.0000972  -0.0000016  -0.0001593  -0.0000150   0.0000202  -0.0000810
   33   0.0000259  -0.0000206  -0.0002493   0.0000031   0.0000099   0.0000312
   34   0.0000135   0.0000080  -0.0000012  -0.0000012   0.0000032  -0.0000091
   35   0.0000129   0.0000081  -0.0000027  -0.0000018   0.0000034  -0.0000107
   36  -0.0000034   0.0000001   0.0000028   0.0000013  -0.0000026   0.0000041
   37   0.0000044   0.0000013  -0.0000052   0.0000004   0.0000010   0.0000013
   38  -0.0000013  -0.0000001   0.0000014   0.0000000  -0.0000001  -0.0000006
   39   0.0000190   0.0000058  -0.0000231   0.0000007   0.0000029   0.0000041
   40  -0.0002130  -0.0000578   0.0001358   0.0000319  -0.0000406   0.0001938
   41  -0.0000856   0.0000213   0.0001869   0.0000167  -0.0000439   0.0001075
   42  -0.0000831   0.0000070   0.0001298   0.0000158  -0.0000252   0.0001064
   43   0.0008118   0.0002048  -0.0002160  -0.0001231   0.0001890  -0.0007317
   44  -0.0003088  -0.0001386  -0.0002806   0.0000327  -0.0000257   0.0002996
   45   0.0000555  -0.0000355  -0.0001868  -0.0000057   0.0000205  -0.0000939
   46   0.0000160   0.0000012  -0.0000387  -0.0000016   0.0000020  -0.0000022
   47   0.0000047   0.0000004  -0.0000101  -0.0000008   0.0000012  -0.0000024
   48  -0.0000116  -0.0000012   0.0000427   0.0000029  -0.0000014   0.0000031
   49   0.0000263   0.0000049  -0.0000187  -0.0000036   0.0000078  -0.0000284
   50   0.0000105   0.0000018  -0.0000067  -0.0000015   0.0000034  -0.0000117
   51  -0.0000020   0.0000009   0.0000010   0.0000013  -0.0000026   0.0000044
   52  -0.0000071  -0.0000647   0.0001771  -0.0000445  -0.0000159  -0.0001289
   53   0.0004175   0.0000240   0.0000724  -0.0000768   0.0002563  -0.0006270
   54   0.0000433   0.0000160   0.0000391   0.0000006   0.0000153  -0.0000849
   55  -0.0000063  -0.0000016  -0.0000064   0.0000039   0.0000006   0.0000037
   56  -0.0000016  -0.0000025  -0.0000029  -0.0000006   0.0000018   0.0000003
   57  -0.0000010  -0.0000014  -0.0000026  -0.0000003   0.0000007   0.0000007
   58  -0.0000124   0.0000129   0.0000720  -0.0000040   0.0000086  -0.0000011
   59   0.0000037  -0.0000040  -0.0000437   0.0000108  -0.0000011  -0.0000035
   60   0.0000106   0.0000017  -0.0000089   0.0000011  -0.0000101  -0.0000013
   61  -0.0002118   0.0000319   0.0001317   0.0000824  -0.0000835   0.0002400
   62  -0.0001274  -0.0000483   0.0001916  -0.0000207  -0.0001947   0.0003198
   63  -0.0000409  -0.0000616   0.0000430  -0.0000416   0.0000212   0.0000578
   64  -0.0000844   0.0000041  -0.0002675   0.0000471  -0.0000199   0.0001595
   65  -0.0001916  -0.0000929  -0.0003564   0.0000322   0.0000255   0.0002689
   66   0.0000249  -0.0000022  -0.0001384   0.0000004  -0.0000244   0.0000551
   67   0.0002244  -0.0000019  -0.0001284  -0.0000725   0.0000117  -0.0001708
   68   0.0002018   0.0001233   0.0000383   0.0000062   0.0000184  -0.0002543
   69   0.0000211   0.0000672   0.0000592   0.0000332  -0.0000064  -0.0000616
   70  -0.0000265  -0.0000524  -0.0000487  -0.0000177   0.0000141   0.0000588
   71  -0.0000320   0.0000460  -0.0000464   0.0000373  -0.0000310   0.0000585
   72  -0.0000198  -0.0000033  -0.0000094   0.0000025   0.0000117   0.0000174
   73  -0.0000057   0.0000024  -0.0000085   0.0000037  -0.0000018   0.0000108
   74  -0.0000091   0.0000036  -0.0000127   0.0000059  -0.0000028   0.0000168
   75  -0.0000027   0.0000006  -0.0000026   0.0000017  -0.0000005   0.0000043
   76   0.0000489   0.0000642   0.0000638   0.0000104  -0.0000055  -0.0000769
   77   0.0000895   0.0000207   0.0000509  -0.0000435   0.0000007  -0.0000993
   78   0.0000145   0.0000083   0.0000293  -0.0000092   0.0000044  -0.0000235
   79  -0.0000006   0.0000017  -0.0000003   0.0000007  -0.0000004   0.0000015
   80  -0.0000009   0.0000025  -0.0000023   0.0000012  -0.0000006   0.0000024
   81   0.0000000   0.0000003  -0.0000008   0.0000001  -0.0000002   0.0000006
   82  -0.0000600   0.0000202   0.0000460   0.0000348   0.0000050   0.0000216
   83  -0.0000199  -0.0000396   0.0000237  -0.0000067  -0.0000110   0.0000409
   84  -0.0000208  -0.0000209   0.0000089  -0.0000004   0.0000099   0.0000133
   85  -0.0000014  -0.0000012  -0.0000043   0.0000002   0.0000002   0.0000031
   86  -0.0000022  -0.0000017  -0.0000063   0.0000004   0.0000003   0.0000047
   87  -0.0000006  -0.0000004  -0.0000013   0.0000001  -0.0000002   0.0000012
   88   0.0000104   0.0000022  -0.0000030  -0.0000034   0.0000015  -0.0000109
   89   0.0000151   0.0000032  -0.0000053  -0.0000050   0.0000022  -0.0000162
   90   0.0000033   0.0000008  -0.0000022  -0.0000010   0.0000004  -0.0000036
   91   0.0000365  -0.0000307  -0.0000204  -0.0000284  -0.0000154   0.0000033
   92  -0.0000283   0.0000178   0.0000075   0.0000159   0.0000111   0.0000014
   93  -0.0000140   0.0000093   0.0000007   0.0000106   0.0000077  -0.0000003
   94  -0.0000007  -0.0000011   0.0000005  -0.0000001   0.0000002   0.0000006
   95  -0.0000013  -0.0000017   0.0000008  -0.0000002   0.0000004   0.0000009
   96  -0.0000002  -0.0000006   0.0000002  -0.0000002   0.0000000   0.0000002
   97  -0.0000198   0.0000102   0.0000098   0.0000117   0.0000146  -0.0000069
   98   0.0000134  -0.0000038   0.0000003  -0.0000062  -0.0000044  -0.0000090
   99   0.0000219  -0.0000107  -0.0000048  -0.0000130  -0.0000117  -0.0000018
           19          20          21          22          23          24
    1  -0.0000849  -0.0000459  -0.0000052   0.0000010   0.0000035  -0.0000053
    2  -0.0001097  -0.0000658  -0.0000079   0.0000008   0.0000021  -0.0000020
    3   0.0000685   0.0000487   0.0000093  -0.0000023   0.0000018  -0.0000019
    4  -0.0010539  -0.0006193  -0.0000600   0.0000027   0.0000003   0.0000002
    5  -0.0006895  -0.0004020  -0.0000474   0.0000018   0.0000021  -0.0000030
    6   0.0009158   0.0005149   0.0000840  -0.0000005  -0.0000067   0.0000102
    7   0.0014150   0.0008045   0.0000529  -0.0000038  -0.0000022   0.0000039
    8   0.0113270   0.0065748   0.0009954  -0.0000093  -0.0000186   0.0000240
    9  -0.0048872  -0.0026504  -0.0008796   0.0000038   0.0000114  -0.0000190
   10  -0.0066724  -0.0038924  -0.0005347   0.0000064   0.0000089  -0.0000117
   11  -0.0017925  -0.0010677  -0.0001055   0.0000027   0.0000033  -0.0000027
   12   0.0009196   0.0005801  -0.0000034  -0.0000051  -0.0000055   0.0000056
   13   0.0001886   0.0001174   0.0000132  -0.0000011  -0.0000023   0.0000036
   14  -0.0000554  -0.0000321  -0.0000017  -0.0000004  -0.0000007  -0.0000004
   15  -0.0007995  -0.0004639  -0.0000991   0.0000027   0.0000013  -0.0000003
   16  -0.0000646  -0.0000386  -0.0000090   0.0000003   0.0000005  -0.0000011
   17   0.0000600   0.0000368   0.0000066  -0.0000006  -0.0000008   0.0000017
   18  -0.0001305  -0.0000776  -0.0000218   0.0000011   0.0000026  -0.0000065
   19  -0.0344830  -0.0181262  -0.0025291   0.0000085   0.0000178  -0.0000288
   20  -0.0181262  -0.0101971  -0.0011609   0.0000060   0.0000102  -0.0000146
   21  -0.0025291  -0.0011609  -0.0013624  -0.0000003   0.0000024  -0.0000075
   22   0.0000085   0.0000060  -0.0000003  -0.0000007  -0.0000006   0.0000001
   23   0.0000178   0.0000102   0.0000024  -0.0000006  -0.0000017   0.0000018
   24  -0.0000288  -0.0000146  -0.0000075   0.0000001   0.0000018  -0.0000038
   25  -0.0001044  -0.0000682  -0.0000076   0.0000007   0.0000012  -0.0000013
   26  -0.0001506  -0.0000928  -0.0000158   0.0000008   0.0000016  -0.0000020
   27   0.0001281   0.0000721   0.0000272  -0.0000004  -0.0000014   0.0000026
   28   0.0488397   0.0271164   0.0036828  -0.0000138  -0.0000161   0.0000211
   29   0.0099976   0.0057737   0.0002410  -0.0000041  -0.0000063   0.0000086
   30   0.0085377   0.0043008   0.0024837  -0.0000019  -0.0000119   0.0000208
   31   0.0053632   0.0031821   0.0004325  -0.0000052  -0.0000083   0.0000103
   32  -0.0023781  -0.0013927  -0.0001954   0.0000021   0.0000039  -0.0000058
   33  -0.0016923  -0.0010536   0.0000206   0.0000031   0.0000014   0.0000012
   34  -0.0000116  -0.0000070  -0.0000011   0.0000002   0.0000003  -0.0000004
   35  -0.0000096  -0.0000064  -0.0000012   0.0000002   0.0000004  -0.0000005
   36   0.0000040   0.0000020   0.0000009  -0.0000000  -0.0000001   0.0000003
   37  -0.0000161  -0.0000089  -0.0000025   0.0000001   0.0000004  -0.0000006
   38   0.0000022   0.0000007   0.0000012   0.0000000  -0.0000001   0.0000004
   39  -0.0000646  -0.0000360  -0.0000106   0.0000004   0.0000018  -0.0000029
   40   0.0066689   0.0038893   0.0004208  -0.0000027  -0.0000048   0.0000065
   41   0.0046955   0.0027703   0.0003325  -0.0000031  -0.0000054   0.0000059
   42   0.0034563   0.0018382   0.0005375  -0.0000014  -0.0000036   0.0000059
   43  -0.0344224  -0.0198680  -0.0020798   0.0000088  -0.0000019   0.0000086
   44   0.0043356   0.0023950   0.0006393   0.0000007   0.0000105  -0.0000137
   45  -0.0056621  -0.0027109  -0.0014283  -0.0000004   0.0000058  -0.0000089
   46  -0.0002563  -0.0001621  -0.0000094   0.0000003   0.0000003  -0.0000003
   47  -0.0000897  -0.0000487  -0.0000145   0.0000001   0.0000001  -0.0000002
   48   0.0002840   0.0001470   0.0000569  -0.0000001  -0.0000003   0.0000008
   49  -0.0011997  -0.0007327  -0.0000812   0.0000004   0.0000009  -0.0000011
   50  -0.0004766  -0.0002876  -0.0000377   0.0000002   0.0000004  -0.0000004
   51   0.0002089   0.0001166   0.0000405  -0.0000000  -0.0000001   0.0000001
   52   0.0099941   0.0057437   0.0004387  -0.0000103  -0.0000217  -0.0000059
   53  -0.0148524  -0.0076192  -0.0009114   0.0000111  -0.0000008   0.0000071
   54  -0.0002073  -0.0000044   0.0002126   0.0000003  -0.0000019  -0.0000006
   55  -0.0000870  -0.0000466  -0.0000062   0.0000001   0.0000005   0.0000002
   56  -0.0001365  -0.0000787  -0.0000024   0.0000001   0.0000001   0.0000001
   57  -0.0000728  -0.0000395  -0.0000052  -0.0000000   0.0000000   0.0000000
   58   0.0011162   0.0006404   0.0001059   0.0000015   0.0000011   0.0000014
   59  -0.0008529  -0.0004483  -0.0000494   0.0000004   0.0000010  -0.0000007
   60   0.0000081  -0.0000290   0.0000271  -0.0000008  -0.0000008  -0.0000009
   61   0.0042282   0.0019623  -0.0002079   0.0000166   0.0000357   0.0000023
   62   0.0064847   0.0030639  -0.0000298  -0.0000114  -0.0000103  -0.0000023
   63   0.0001569  -0.0001125   0.0001716   0.0000020  -0.0000021   0.0000085
   64   0.0010152   0.0003983   0.0001877   0.0000006   0.0000084   0.0000023
   65   0.0015555   0.0006289   0.0003718  -0.0000032  -0.0000011   0.0000052
   66   0.0004986   0.0003112   0.0000876  -0.0000099  -0.0000112  -0.0000045
   67  -0.0010610  -0.0005318   0.0001620  -0.0000116  -0.0000240  -0.0000033
   68   0.0018015   0.0008660  -0.0000719   0.0000083   0.0000116  -0.0000039
   69   0.0008070   0.0004605  -0.0001018   0.0000080   0.0000148  -0.0000014
   70   0.0005146   0.0002894   0.0002498  -0.0000073  -0.0000151   0.0000011
   71   0.0006618   0.0002982  -0.0000266   0.0000029   0.0000087  -0.0000003
   72   0.0000516   0.0000143   0.0000317   0.0000022   0.0000031   0.0000010
   73   0.0001105   0.0000339   0.0000632  -0.0000000  -0.0000002   0.0000002
   74   0.0001775   0.0000529   0.0001106  -0.0000000  -0.0000002   0.0000003
   75   0.0000447   0.0000126   0.0000336   0.0000000  -0.0000000   0.0000001
   76   0.0004082   0.0001595  -0.0001640   0.0000042   0.0000100  -0.0000030
   77  -0.0009551  -0.0004817   0.0000499  -0.0000030  -0.0000063  -0.0000026
   78   0.0001184  -0.0000869   0.0000498   0.0000024   0.0000040   0.0000004
   79   0.0000954   0.0000360  -0.0000079  -0.0000001  -0.0000000  -0.0000000
   80   0.0001114   0.0000221  -0.0000173  -0.0000001   0.0000000  -0.0000001
   81  -0.0000207  -0.0000011   0.0000015  -0.0000000  -0.0000000  -0.0000000
   82   0.0001498  -0.0000997   0.0000932   0.0000095   0.0000196   0.0000029
   83   0.0003079   0.0000139   0.0003176  -0.0000071  -0.0000136   0.0000016
   84   0.0000874   0.0000631   0.0001301  -0.0000012  -0.0000036   0.0000015
   85   0.0000162   0.0000055  -0.0000003   0.0000000   0.0000000   0.0000001
   86   0.0000458   0.0000205   0.0000029   0.0000000   0.0000000   0.0000001
   87   0.0000073   0.0000035  -0.0000003  -0.0000000  -0.0000000  -0.0000000
   88  -0.0002263  -0.0001392  -0.0000099   0.0000002  -0.0000001  -0.0000004
   89  -0.0003561  -0.0002195  -0.0000139   0.0000004   0.0000000  -0.0000007
   90  -0.0001041  -0.0000632  -0.0000061   0.0000001   0.0000001  -0.0000002
   91  -0.0002647   0.0000848  -0.0001804  -0.0000111  -0.0000218  -0.0000036
   92  -0.0005276  -0.0000966  -0.0003417   0.0000061   0.0000133   0.0000000
   93  -0.0001874  -0.0000538  -0.0000814   0.0000034   0.0000059   0.0000011
   94   0.0000268   0.0000224  -0.0000072  -0.0000000  -0.0000000   0.0000000
   95   0.0000376   0.0000320  -0.0000111  -0.0000000   0.0000000   0.0000000
   96   0.0000098   0.0000084  -0.0000018  -0.0000000  -0.0000001  -0.0000000
   97  -0.0001507  -0.0001051   0.0000011   0.0000058   0.0000095   0.0000020
   98  -0.0000609  -0.0000229  -0.0000077  -0.0000017  -0.0000037  -0.0000010
   99   0.0000740   0.0000643   0.0000032  -0.0000051  -0.0000092  -0.0000019
           25          26          27          28          29          30
    1  -0.0000120  -0.0000148   0.0000119   0.0000814  -0.0000322   0.0002057
    2  -0.0000053  -0.0000067   0.0000030   0.0000996   0.0000413   0.0000557
    3  -0.0000118  -0.0000147   0.0000146  -0.0001107  -0.0001520   0.0003230
    4   0.0000320   0.0000323  -0.0000280   0.0000910   0.0010866  -0.0001198
    5   0.0000048   0.0000042  -0.0000034   0.0005672   0.0004458   0.0001921
    6   0.0000234   0.0000322  -0.0000214  -0.0011660  -0.0001987  -0.0009116
    7  -0.0001067  -0.0001277   0.0000969   0.0160299  -0.0065957   0.0014637
    8   0.0001320   0.0001775  -0.0001289  -0.0281184  -0.0004916  -0.0074794
    9  -0.0000795  -0.0001112   0.0001099   0.0145407  -0.0012631   0.0055278
   10  -0.0000024  -0.0000111  -0.0000002   0.0087004   0.0034125   0.0034010
   11  -0.0000041  -0.0000079  -0.0000007   0.0028034   0.0008456   0.0007959
   12   0.0000169   0.0000203  -0.0000085  -0.0004505  -0.0006212  -0.0001860
   13   0.0000097   0.0000128  -0.0000092  -0.0008436   0.0001590  -0.0002086
   14   0.0000029   0.0000035  -0.0000020  -0.0001046   0.0001199   0.0000180
   15  -0.0000052  -0.0000074   0.0000035   0.0011419   0.0003296   0.0004275
   16  -0.0000027  -0.0000037   0.0000034   0.0001638   0.0000003   0.0000565
   17   0.0000043   0.0000052  -0.0000040  -0.0001590   0.0000173  -0.0000829
   18  -0.0000120  -0.0000166   0.0000154   0.0006458  -0.0001860   0.0002443
   19  -0.0001044  -0.0001506   0.0001281   0.0488397   0.0099976   0.0085377
   20  -0.0000682  -0.0000928   0.0000721   0.0271164   0.0057737   0.0043008
   21  -0.0000076  -0.0000158   0.0000272   0.0036828   0.0002410   0.0024837
   22   0.0000007   0.0000008  -0.0000004  -0.0000138  -0.0000041  -0.0000019
   23   0.0000012   0.0000016  -0.0000014  -0.0000161  -0.0000063  -0.0000119
   24  -0.0000013  -0.0000020   0.0000026   0.0000211   0.0000086   0.0000208
   25  -0.0000115  -0.0000122   0.0000099   0.0003714  -0.0000560   0.0000703
   26  -0.0000122  -0.0000158   0.0000121   0.0005100  -0.0000803   0.0001041
   27   0.0000099   0.0000121  -0.0000199  -0.0003927   0.0000664  -0.0001391
   28   0.0003714   0.0005100  -0.0003927  -0.1828544   0.0119531  -0.0123420
   29  -0.0000560  -0.0000803   0.0000664   0.0119531  -0.0138503  -0.0012940
   30   0.0000703   0.0001041  -0.0001391  -0.0123420  -0.0012940  -0.0135539
   31   0.0000248   0.0000346  -0.0000206  -0.0105661  -0.0017110  -0.0032942
   32  -0.0000082  -0.0000119   0.0000083   0.0027822   0.0012001   0.0016506
   33   0.0000060   0.0000105  -0.0000162  -0.0000762   0.0017858   0.0003068
   34  -0.0000017  -0.0000021   0.0000014   0.0001253  -0.0000398   0.0000178
   35  -0.0000019  -0.0000023   0.0000016   0.0001414  -0.0000458   0.0000234
   36   0.0000003   0.0000006  -0.0000009  -0.0000390   0.0000161  -0.0000160
   37  -0.0000005  -0.0000007   0.0000006   0.0000188   0.0000014   0.0000163
   38   0.0000001   0.0000001  -0.0000002  -0.0000073   0.0000025  -0.0000073
   39  -0.0000026  -0.0000035   0.0000027   0.0000995   0.0000008   0.0000776
   40   0.0000486   0.0000633  -0.0000435  -0.0252924   0.0007466  -0.0029901
   41   0.0000129   0.0000146  -0.0000088  -0.0003372  -0.0036448  -0.0037697
   42   0.0000078   0.0000134  -0.0000163  -0.0054963  -0.0010401  -0.0034590
   43  -0.0002559  -0.0003307   0.0002488   0.1837565  -0.0165099   0.0077452
   44   0.0000764   0.0001091  -0.0000900  -0.0825159   0.0180786   0.0024458
   45  -0.0000042  -0.0000107   0.0000369  -0.0080535   0.0048472   0.0102019
   46  -0.0000005  -0.0000007   0.0000002   0.0005845   0.0001126   0.0000925
   47  -0.0000002  -0.0000003   0.0000001   0.0002334   0.0000168   0.0000690
   48   0.0000003   0.0000005  -0.0000004  -0.0004940  -0.0000876  -0.0002512
   49  -0.0000071  -0.0000087   0.0000055   0.0020106   0.0004941   0.0008570
   50  -0.0000030  -0.0000037   0.0000024   0.0008396   0.0002058   0.0003781
   51   0.0000009   0.0000012  -0.0000010  -0.0002392  -0.0000898  -0.0002011
   52   0.0000395   0.0000109  -0.0000398  -0.0101063  -0.0045433  -0.0062645
   53  -0.0000818  -0.0001013   0.0000841   0.1248372  -0.0148147  -0.0007996
   54  -0.0000026  -0.0000077  -0.0000010   0.0140395  -0.0025644  -0.0028127
   55  -0.0000011  -0.0000005   0.0000010  -0.0008034   0.0002172   0.0001267
   56  -0.0000011  -0.0000011   0.0000012   0.0000723   0.0000337   0.0001152
   57  -0.0000007  -0.0000007   0.0000008  -0.0000434   0.0000380   0.0000880
   58   0.0000108   0.0000141  -0.0000099   0.0015688  -0.0008853  -0.0013971
   59  -0.0000089  -0.0000100   0.0000064   0.0002997   0.0003699   0.0008384
   60  -0.0000010  -0.0000024  -0.0000013  -0.0010611   0.0002623   0.0001610
   61   0.0000356   0.0000822  -0.0000600  -0.0517557   0.0075917   0.0020477
   62   0.0000804   0.0000990  -0.0001089  -0.0731534   0.0106703   0.0021769
   63   0.0000147   0.0000126   0.0000101  -0.0075890   0.0018056   0.0023840
   64  -0.0000401  -0.0000372   0.0000358  -0.0171160   0.0020788   0.0028451
   65  -0.0000334  -0.0000372   0.0000481  -0.0306526   0.0049051   0.0031006
   66  -0.0000206  -0.0000227   0.0000012  -0.0025386  -0.0001443   0.0008442
   67  -0.0000364  -0.0000782   0.0000660   0.0355960  -0.0073930   0.0001134
   68  -0.0000434  -0.0000522   0.0000420   0.0401811  -0.0096829  -0.0021886
   69  -0.0000062   0.0000035  -0.0000030   0.0061433  -0.0019970  -0.0010939
   70   0.0000125   0.0000033   0.0000116  -0.0038909   0.0008116   0.0000837
   71  -0.0000005   0.0000068   0.0000087  -0.0049237   0.0004976   0.0012449
   72  -0.0000005   0.0000019   0.0000065  -0.0008704   0.0000903   0.0003423
   73   0.0000000   0.0000004   0.0000006  -0.0004106   0.0000691  -0.0002383
   74  -0.0000003   0.0000008   0.0000004  -0.0005947   0.0001076  -0.0003938
   75  -0.0000001   0.0000004  -0.0000002  -0.0001438   0.0000272  -0.0001071
   76  -0.0000027   0.0000019  -0.0000029   0.0086271  -0.0019778  -0.0009207
   77   0.0000098  -0.0000094   0.0000192   0.0126821  -0.0024091  -0.0010889
   78  -0.0000015  -0.0000041  -0.0000020   0.0022778  -0.0004203  -0.0004223
   79   0.0000002   0.0000006  -0.0000004  -0.0001489   0.0000007  -0.0000309
   80   0.0000000   0.0000005  -0.0000004  -0.0001614   0.0000353  -0.0000404
   81   0.0000001  -0.0000000  -0.0000000   0.0000238  -0.0000017  -0.0000006
   82  -0.0000072   0.0000093  -0.0000245  -0.0052991   0.0014722  -0.0002314
   83   0.0000128   0.0000199  -0.0000327  -0.0075471   0.0020072  -0.0006977
   84   0.0000056   0.0000063  -0.0000023  -0.0024755   0.0006932  -0.0003931
   85  -0.0000007  -0.0000005   0.0000011  -0.0003854   0.0000704   0.0000723
   86  -0.0000011  -0.0000008   0.0000016  -0.0006068   0.0000979   0.0001112
   87  -0.0000001  -0.0000000   0.0000002  -0.0001620   0.0000306   0.0000200
   88  -0.0000019  -0.0000033   0.0000022   0.0021260  -0.0002953  -0.0001229
   89  -0.0000031  -0.0000052   0.0000033   0.0031577  -0.0004258  -0.0001815
   90  -0.0000009  -0.0000014   0.0000009   0.0007431  -0.0000873  -0.0000374
   91   0.0000160   0.0000091   0.0000018   0.0005025  -0.0002488   0.0004252
   92  -0.0000064  -0.0000037  -0.0000003   0.0001150   0.0001480   0.0003114
   93  -0.0000034  -0.0000011   0.0000042   0.0002994   0.0000478   0.0000654
   94   0.0000001   0.0000002   0.0000001  -0.0002847   0.0000296   0.0000764
   95   0.0000001   0.0000003   0.0000001  -0.0004416   0.0000474   0.0001186
   96   0.0000001   0.0000001  -0.0000000  -0.0001104   0.0000104   0.0000242
   97  -0.0000064  -0.0000029   0.0000054   0.0005777  -0.0000128  -0.0000914
   98   0.0000014  -0.0000006   0.0000005   0.0009484  -0.0002159  -0.0000151
   99   0.0000056   0.0000022  -0.0000031   0.0001955  -0.0001532   0.0000424
           31          32          33          34          35          36
    1   0.0000735  -0.0000434   0.0000187  -0.0000050  -0.0000054   0.0000013
    2   0.0000416  -0.0000176  -0.0000189  -0.0000021  -0.0000021  -0.0000000
    3   0.0000435  -0.0000277   0.0000660  -0.0000055  -0.0000061   0.0000031
    4   0.0003324  -0.0001510  -0.0002510   0.0000075   0.0000077  -0.0000017
    5   0.0002329  -0.0000949  -0.0001034   0.0000003  -0.0000006   0.0000015
    6  -0.0004132   0.0001903   0.0000144   0.0000121   0.0000136  -0.0000054
    7   0.0000793   0.0002164   0.0009420  -0.0000458  -0.0000497   0.0000126
    8  -0.0047902   0.0019636   0.0011756   0.0000369   0.0000434  -0.0000144
    9   0.0020602  -0.0008318  -0.0000115  -0.0000301  -0.0000347   0.0000145
   10   0.0041419  -0.0017471  -0.0016885  -0.0000094  -0.0000103   0.0000040
   11   0.0012874  -0.0005195  -0.0005587  -0.0000038  -0.0000054   0.0000004
   12  -0.0007922   0.0004094   0.0008033   0.0000039   0.0000067   0.0000030
   13  -0.0002418   0.0000972   0.0000259   0.0000135   0.0000129  -0.0000034
   14  -0.0000201  -0.0000016  -0.0000206   0.0000080   0.0000081   0.0000001
   15   0.0004363  -0.0001593  -0.0002493  -0.0000012  -0.0000027   0.0000028
   16   0.0000371  -0.0000150   0.0000031  -0.0000012  -0.0000018   0.0000013
   17  -0.0000564   0.0000202   0.0000099   0.0000032   0.0000034  -0.0000026
   18   0.0001752  -0.0000810   0.0000312  -0.0000091  -0.0000107   0.0000041
   19   0.0053632  -0.0023781  -0.0016923  -0.0000116  -0.0000096   0.0000040
   20   0.0031821  -0.0013927  -0.0010536  -0.0000070  -0.0000064   0.0000020
   21   0.0004325  -0.0001954   0.0000206  -0.0000011  -0.0000012   0.0000009
   22  -0.0000052   0.0000021   0.0000031   0.0000002   0.0000002  -0.0000000
   23  -0.0000083   0.0000039   0.0000014   0.0000003   0.0000004  -0.0000001
   24   0.0000103  -0.0000058   0.0000012  -0.0000004  -0.0000005   0.0000003
   25   0.0000248  -0.0000082   0.0000060  -0.0000017  -0.0000019   0.0000003
   26   0.0000346  -0.0000119   0.0000105  -0.0000021  -0.0000023   0.0000006
   27  -0.0000206   0.0000083  -0.0000162   0.0000014   0.0000016  -0.0000009
   28  -0.0105661   0.0027822  -0.0000762   0.0001253   0.0001414  -0.0000390
   29  -0.0017110   0.0012001   0.0017858  -0.0000398  -0.0000458   0.0000161
   30  -0.0032942   0.0016506   0.0003068   0.0000178   0.0000234  -0.0000160
   31  -0.0051743   0.0021372   0.0019376   0.0000352   0.0000383  -0.0000112
   32   0.0021372  -0.0011120  -0.0010047  -0.0000096  -0.0000095   0.0000032
   33   0.0019376  -0.0010047  -0.0015397   0.0000037   0.0000034  -0.0000070
   34   0.0000352  -0.0000096   0.0000037  -0.0000062  -0.0000051   0.0000016
   35   0.0000383  -0.0000095   0.0000034  -0.0000051  -0.0000051   0.0000018
   36  -0.0000112   0.0000032  -0.0000070   0.0000016   0.0000018  -0.0000026
   37   0.0000081  -0.0000046  -0.0000029  -0.0000007  -0.0000008   0.0000004
   38  -0.0000022   0.0000013   0.0000006   0.0000002   0.0000002  -0.0000003
   39   0.0000371  -0.0000209  -0.0000127  -0.0000033  -0.0000035   0.0000020
   40  -0.0049744   0.0014342   0.0008463   0.0000475   0.0000497  -0.0000111
   41  -0.0039362   0.0022416   0.0021135   0.0000071   0.0000089  -0.0000021
   42  -0.0024495   0.0012810   0.0009211   0.0000071   0.0000087  -0.0000075
   43   0.0142667  -0.0041723  -0.0007908  -0.0001759  -0.0001953   0.0000511
   44  -0.0028722  -0.0002055  -0.0017158   0.0000772   0.0000860  -0.0000240
   45   0.0017779  -0.0012380  -0.0004666   0.0000092   0.0000081   0.0000092
   46   0.0003207  -0.0000911  -0.0001252  -0.0000028  -0.0000025   0.0000004
   47   0.0000787  -0.0000108  -0.0000176  -0.0000012  -0.0000010   0.0000004
   48  -0.0002504   0.0000904   0.0001221   0.0000020   0.0000019  -0.0000011
   49   0.0010573  -0.0003929  -0.0003435  -0.0000063  -0.0000067   0.0000011
   50   0.0004356  -0.0001500  -0.0001324  -0.0000026  -0.0000028   0.0000006
   51  -0.0001230   0.0000496   0.0000325   0.0000007   0.0000008  -0.0000005
   52  -0.0001552  -0.0007376  -0.0011030  -0.0000012   0.0000150   0.0000009
   53   0.0119112  -0.0061383  -0.0031043  -0.0001011  -0.0001168   0.0000319
   54   0.0013792  -0.0007694  -0.0007126  -0.0000123  -0.0000125   0.0000009
   55  -0.0000900   0.0000289   0.0000051   0.0000019   0.0000013  -0.0000003
   56  -0.0000105  -0.0000112  -0.0000012   0.0000005   0.0000003   0.0000001
   57  -0.0000198   0.0000011   0.0000046   0.0000004   0.0000003   0.0000000
   58   0.0000328   0.0001750   0.0001989  -0.0000058  -0.0000062   0.0000016
   59   0.0000166  -0.0001452  -0.0001545   0.0000051   0.0000029  -0.0000011
   60  -0.0000093  -0.0000257  -0.0000433   0.0000009   0.0000017  -0.0000003
   61  -0.0047560   0.0023966   0.0016239   0.0000724   0.0000434  -0.0000200
   62  -0.0060553   0.0034910   0.0022475   0.0000541   0.0000659  -0.0000145
   63  -0.0009705   0.0004100   0.0006215   0.0000104   0.0000084   0.0000039
   64  -0.0021454   0.0010157   0.0005214   0.0000209   0.0000152  -0.0000107
   65  -0.0034082   0.0014471   0.0006914   0.0000306   0.0000312  -0.0000082
   66  -0.0007009   0.0003811   0.0001758  -0.0000073   0.0000059  -0.0000035
   67   0.0021440  -0.0008835  -0.0002687  -0.0000440  -0.0000214   0.0000150
   68   0.0031408  -0.0011377  -0.0005023  -0.0000345  -0.0000426   0.0000090
   69   0.0007500  -0.0001997  -0.0001417  -0.0000006  -0.0000122  -0.0000020
   70  -0.0004769   0.0003189   0.0000692  -0.0000064   0.0000060   0.0000017
   71  -0.0005287   0.0005791   0.0002093   0.0000028  -0.0000002  -0.0000097
   72  -0.0001473   0.0000881   0.0000625   0.0000016  -0.0000005  -0.0000014
   73  -0.0000206   0.0000272  -0.0000444  -0.0000000   0.0000003  -0.0000005
   74  -0.0000273   0.0000370  -0.0000777  -0.0000001   0.0000004  -0.0000008
   75  -0.0000097   0.0000113  -0.0000188  -0.0000000   0.0000001  -0.0000002
   76   0.0008476   0.0000917   0.0003043  -0.0000092  -0.0000187   0.0000054
   77   0.0011642   0.0000934   0.0004498  -0.0000227  -0.0000198   0.0000150
   78   0.0002653   0.0000118   0.0001123  -0.0000012  -0.0000061   0.0000024
   79  -0.0000118   0.0000126   0.0000022  -0.0000004  -0.0000001   0.0000001
   80  -0.0000129   0.0000148  -0.0000015  -0.0000005  -0.0000001   0.0000002
   81  -0.0000010   0.0000022  -0.0000015  -0.0000001  -0.0000000   0.0000000
   82  -0.0002573  -0.0001061  -0.0002043   0.0000210   0.0000021  -0.0000082
   83  -0.0004454  -0.0001481  -0.0003068   0.0000035   0.0000153  -0.0000015
   84  -0.0001363  -0.0000417  -0.0000961   0.0000029   0.0000038   0.0000011
   85  -0.0000600   0.0000307   0.0000259   0.0000003   0.0000004  -0.0000000
   86  -0.0000920   0.0000475   0.0000399   0.0000004   0.0000006  -0.0000000
   87  -0.0000212   0.0000117   0.0000081   0.0000001   0.0000002  -0.0000000
   88   0.0001719  -0.0000441  -0.0000132  -0.0000023  -0.0000021   0.0000007
   89   0.0002516  -0.0000647  -0.0000204  -0.0000032  -0.0000031   0.0000010
   90   0.0000554  -0.0000143  -0.0000059  -0.0000006  -0.0000006   0.0000002
   91  -0.0000193   0.0000589   0.0000709  -0.0000161   0.0000064   0.0000034
   92   0.0000053   0.0000422   0.0000338   0.0000081  -0.0000049  -0.0000056
   93   0.0000074  -0.0000019  -0.0000029   0.0000038  -0.0000020  -0.0000014
   94  -0.0000387   0.0000135   0.0000197   0.0000003   0.0000004   0.0000002
   95  -0.0000600   0.0000206   0.0000302   0.0000006   0.0000006   0.0000002
   96  -0.0000138   0.0000050   0.0000074   0.0000001   0.0000001   0.0000001
   97   0.0000563  -0.0000543  -0.0000238   0.0000060  -0.0000032  -0.0000009
   98   0.0000787  -0.0000324  -0.0000082  -0.0000033   0.0000009   0.0000010
   99   0.0000160   0.0000124   0.0000146  -0.0000067   0.0000027   0.0000016
           37          38          39          40          41          42
    1  -0.0000034   0.0000014  -0.0000161   0.0000801   0.0000741   0.0000472
    2  -0.0000011   0.0000002  -0.0000048   0.0000277   0.0000342   0.0000157
    3  -0.0000043   0.0000022  -0.0000194   0.0000758   0.0000958   0.0000471
    4   0.0000022  -0.0000014   0.0000091  -0.0000159   0.0001628   0.0000899
    5  -0.0000011   0.0000003  -0.0000053   0.0000832   0.0001339   0.0000827
    6   0.0000082  -0.0000033   0.0000380  -0.0003775  -0.0003368  -0.0002234
    7  -0.0000056   0.0000026  -0.0000250   0.0022543  -0.0006499  -0.0000448
    8   0.0000203  -0.0000060   0.0000978  -0.0053466  -0.0033599  -0.0023788
    9  -0.0000141   0.0000055  -0.0000672   0.0025747   0.0012342   0.0013489
   10  -0.0000090   0.0000022  -0.0000427   0.0031015   0.0029113   0.0018852
   11  -0.0000032   0.0000008  -0.0000151   0.0010274   0.0008681   0.0004907
   12   0.0000110  -0.0000033   0.0000502   0.0003020  -0.0006773  -0.0000952
   13   0.0000044  -0.0000013   0.0000190  -0.0002130  -0.0000856  -0.0000831
   14   0.0000013  -0.0000001   0.0000058  -0.0000578   0.0000213   0.0000070
   15  -0.0000052   0.0000014  -0.0000231   0.0001358   0.0001869   0.0001298
   16   0.0000004   0.0000000   0.0000007   0.0000319   0.0000167   0.0000158
   17   0.0000010  -0.0000001   0.0000029  -0.0000406  -0.0000439  -0.0000252
   18   0.0000013  -0.0000006   0.0000041   0.0001938   0.0001075   0.0001064
   19  -0.0000161   0.0000022  -0.0000646   0.0066689   0.0046955   0.0034563
   20  -0.0000089   0.0000007  -0.0000360   0.0038893   0.0027703   0.0018382
   21  -0.0000025   0.0000012  -0.0000106   0.0004208   0.0003325   0.0005375
   22   0.0000001   0.0000000   0.0000004  -0.0000027  -0.0000031  -0.0000014
   23   0.0000004  -0.0000001   0.0000018  -0.0000048  -0.0000054  -0.0000036
   24  -0.0000006   0.0000004  -0.0000029   0.0000065   0.0000059   0.0000059
   25  -0.0000005   0.0000001  -0.0000026   0.0000486   0.0000129   0.0000078
   26  -0.0000007   0.0000001  -0.0000035   0.0000633   0.0000146   0.0000134
   27   0.0000006  -0.0000002   0.0000027  -0.0000435  -0.0000088  -0.0000163
   28   0.0000188  -0.0000073   0.0000995  -0.0252924  -0.0003372  -0.0054963
   29   0.0000014   0.0000025   0.0000008   0.0007466  -0.0036448  -0.0010401
   30   0.0000163  -0.0000073   0.0000776  -0.0029901  -0.0037697  -0.0034590
   31   0.0000081  -0.0000022   0.0000371  -0.0049744  -0.0039362  -0.0024495
   32  -0.0000046   0.0000013  -0.0000209   0.0014342   0.0022416   0.0012810
   33  -0.0000029   0.0000006  -0.0000127   0.0008463   0.0021135   0.0009211
   34  -0.0000007   0.0000002  -0.0000033   0.0000475   0.0000071   0.0000071
   35  -0.0000008   0.0000002  -0.0000035   0.0000497   0.0000089   0.0000087
   36   0.0000004  -0.0000003   0.0000020  -0.0000111  -0.0000021  -0.0000075
   37  -0.0000017   0.0000003  -0.0000055   0.0000035   0.0000063   0.0000041
   38   0.0000003  -0.0000005   0.0000024  -0.0000005  -0.0000019  -0.0000014
   39  -0.0000055   0.0000024  -0.0000240   0.0000160   0.0000278   0.0000187
   40   0.0000035  -0.0000005   0.0000160  -0.0118099  -0.0022969  -0.0019214
   41   0.0000063  -0.0000019   0.0000278  -0.0022969  -0.0064591  -0.0028029
   42   0.0000041  -0.0000014   0.0000187  -0.0019214  -0.0028029  -0.0025828
   43  -0.0000009   0.0000062  -0.0000174   0.0408184   0.0050983   0.0083085
   44  -0.0000084   0.0000002  -0.0000312  -0.0145095   0.0043021  -0.0013700
   45  -0.0000079   0.0000020  -0.0000344  -0.0004366   0.0038759   0.0038570
   46  -0.0000003   0.0000000  -0.0000015   0.0003436   0.0001503   0.0000768
   47  -0.0000001   0.0000001  -0.0000006   0.0001165   0.0000307   0.0000330
   48   0.0000007  -0.0000003   0.0000029  -0.0002658  -0.0001540  -0.0001541
   49  -0.0000009   0.0000001  -0.0000037   0.0019558   0.0013506   0.0005044
   50  -0.0000004   0.0000001  -0.0000015   0.0008486   0.0005700   0.0002033
   51   0.0000001  -0.0000001   0.0000006  -0.0002848  -0.0001861  -0.0000792
   52  -0.0000151  -0.0000131  -0.0000011  -0.0099851   0.0005081   0.0000179
[...]
 H. L. Woodcock III, W. Zhang, A. T. Bell, A. K. Chakraborty, D. M. Chipman, 
 F. J. Keil, A. Warshel, W. J. Hehre, H. F. Schaefer III, J. Kong, 
 A. I. Krylov, P. M. W. Gill, M. Head-Gordon

 Additional authors for Version 3.1: 
 Z. Gan, Y. Zhao, N. E. Schultz, D. Truhlar, E. Epifanovsky, M. Oana

 Additional authors for Version 3.2: 
 R. Baer, B. R. Brooks, D. Casanova, J.-D. Chai, C.-L. Cheng, C. Cramer, 
 D. Crittenden, A. Ghysels, G. Hawkins, E. G. Hohenstein, C. Kelley, 
 W. Kurlancheek, D. Liotard, E. Livshits, P. Manohar, A. Marenich, 
 D. Neuhauser, R. Olson, M. A. Rohrdanz, K. S. Thanthiriwatte, A. J. W. Thom, 
 V. Vanovschi, C. F. Williams, Q. Wu, Z.-Q. You

 Additional authors for Version 4.0: 
 A. Aspuru-Guzik, Y. Bernard, C. Chang, J. Deng, A. Dreuw, M. Diedenhofen, 
 R. G. Edgar, D. Ghosh, W. A. Goddard III, M. Goldey, L. D. Jacobson, 
 M. Gordon, B. Kaduk, I. Kaliman, K. Khistyaev, R. King, A. Klamt, 
 D. Kosenkov, T. Kus, D. Lambrecht, A. Landau, A. W. Lange, K. Lawler, F. Liu, 
 J. Liu, R. Olivares-Amaya, S. P. Mao, J. Parkhill, N. Russ, M. Schmidt, 
 N. Shenvi, D. Small, Y. C. Su, E. Sundstrom, L. Vogt, O. Vydrov, M. Watson, 
 M. Wormit, X. Xu, S. Yeganeh, I. Y. Zhang, D. Zuev

 Additional authors for Version 4.1: 
 X. Feng, M. W. D. Hanson-Heine, P. Horn, H. Ji, A. Laurent, R. Peverati, 
 N. Mardirossian, N. Sergueev, S. Sharada, P. Zimmerman

 Q-Chem, Version 4.1, Q-Chem, Inc., Pittsburgh, PA (2013).

 Parts of Q-Chem use Armadillo 3.6.2 (Piazza del Duomo).
 http://arma.sourceforge.net/

 Intel X86 Linux Version 4.1.2

 Q-chem begins on Fri Feb 28 13:17:56 2014  

Host: 
0

     Scratch files written to /home/qchem_scratch/qchem36375//
 Feb414 28838_zgan 2267   
 Parallel job on  1  processors
Processing $rem in /home/QCHEM/config/preferences.
 MEM_TOTAL  2000 
Finally everything over in PARseQInput

--------------------------------------------------------------
User input:
--------------------------------------------------------------
$molecule
read
$end

$rem
scf_convergence=10
cis_convergence=10
thresh=12
jobtype         sp
exchange hf
cis_n_roots     2
cis_singlets false
cis_triplets    true
basis           6-31G**
scf_guess read
symmetry        false
rpa             false
mem_static 5000
mem_total 20000
sym_ignore true
er_cis_numstate 2
loc_cis_ov_separate true
max_scf_cycles 300
max_cis_cycles = 100
$end

$localized_diabatization
comment
1 2
$end
--------------------------------------------------------------
 ----------------------------------------------------------------
             Standard Nuclear Orientation (Angstroms)
    I     Atom           X                Y                Z
 ----------------------------------------------------------------
    1      C      -3.8419929279    -2.4456821618    -0.2690422332
    2      C      -2.6081579205    -1.9079004937    -0.4533255368
    3      C      -2.3809108010    -0.5226414883    -0.2376504594
    4      C      -3.4569172426     0.2869401485     0.1713299491
    5      C      -4.7349041861    -0.3020181167     0.3573413828
    6      C      -4.9235046075    -1.6301445619     0.1432844555
    7      H      -0.2894381774    -0.5682376025    -0.7380447964
    8      H      -4.0043196036    -3.4959395508    -0.4355464269
    9      H      -1.7857076241    -2.5274829045    -0.7665197945
   10      C      -1.1004513260     0.0648792976    -0.4231050259
   11      C      -3.2195426616     1.6704088468     0.3852245842
   12      H      -5.5547126469     0.3211860290     0.6707161523
   13      H      -5.8948950387    -2.0696487921     0.2854059362
   14      C      -1.9844594898     2.2003668334     0.2016845644
   15      C      -0.8891686620     1.3929537380    -0.2131152300
   16      H      -4.0359144267     2.2971163665     0.7007106942
   17      H      -1.8239466495     3.2513547824     0.3720935397
   18      C       0.4638869377     2.0544918303    -0.4445577994
   19      H       0.4951028424     2.4426504343    -1.4594919837
   20      H       0.5294088124     2.9245121242     0.2080254041
   21      C       1.6613532731     1.1754453019    -0.2133060963
   22      C       1.9372633777     0.6714255815     1.1365768977
   23      C       2.5643452548     0.8222956387    -1.2473216246
   24      C       3.0170728042    -0.1015358081     1.3994301576
   25      H       1.2542282181     0.9292951682     1.9263988906
   26      C       3.6587904111     0.0412588689    -1.0162575132
   27      H       2.3761552339     1.1841586041    -2.2435733502
   28      C       3.9268051190    -0.4552844945     0.3432280438
   29      H       3.2059507180    -0.4599134371     2.3959689767
   30      H       4.3429306322    -0.2278976092    -1.7957176595
   31      C       5.0798545363    -1.2789904248     0.6003230883
   32      H       5.2187252084    -1.6118267753     1.6308432733
   33      O       5.8687826459    -1.6008672566    -0.2594648103
 ----------------------------------------------------------------
 Nuclear Repulsion Energy =  1221.2895519845 hartrees
 There are       65 alpha and       65 beta electrons
 Requested basis set is 6-31G(d,p)
 There are 118 shells and 355 basis functions

Total QAlloc Memory Limit  20000 MB
Mega-Array Size      4888 MB
MEM_STATIC part      5000 MB
 A cutoff of  1.0D-12 yielded   4348 shell pairs
 There are     41266 function pairs
 Smallest overlap matrix eigenvalue = 2.65E-04

  Scale SEOQF with 1.000000e-02/1.000000e-01/1.000000e-01

 Standard Electronic Orientation quadrupole field applied
 Nucleus-field energy     =     0.0000000168 hartrees
 Guess MOs from SCF MO coefficient file
Reading MOs from coefficient file
Reading MOs from coefficient file
 A restricted Hartree-Fock SCF calculation will be
 performed using Pulay DIIS extrapolation
 SCF converges when DIIS error is below 1.0E-10
 ---------------------------------------
  Cycle       Energy         DIIS Error
 ---------------------------------------
    1    -764.6764408318      1.22E-11
    2    -764.6764408318      1.59E-11 Convergence criterion met
 ---------------------------------------
 SCF time:  CPU 56.35 s  wall 57.09 s
 SCF   energy in the final basis set = -764.6764408318
 Total energy in the final basis set = -764.6764408318
 Direct RCIS calculation will be performed
 Triplet excitation energies requested
 CIS energy converged when residual is below 10e-10
 ---------------------------------------------------
 Iter    Rts Conv    Rts Left    Ttl Dev     Max Dev
 ---------------------------------------------------
   1         0           2      0.000693    0.000464
   2         0           2      0.000637    0.000381
   3         0           2      0.000653    0.000505
   4         0           2      0.000350    0.000267
   5         0           2      0.000207    0.000174
   6         0           2      0.000091    0.000082
   7         0           2      0.000034    0.000031
   8         0           2      0.000016    0.000014
   9         0           2      0.000006    0.000006
  10         0           2      0.000004    0.000004
  11         0           2      0.000002    0.000002
  12         0           2      0.000001    0.000001
  13         0           2      0.000000    0.000000
  14         0           2      0.000000    0.000000
  15         0           2      0.000000    0.000000
  16         0           2      0.000000    0.000000
  17         0           2      0.000000    0.000000
  18         0           2      0.000000    0.000000
  19         0           2      0.000000    0.000000
  20         0           2      0.000000    0.000000
  21         1           1      0.000000    0.000000
  22         2           0      0.000000    0.000000    Roots Converged
 ---------------------------------------------------
 
 
 ---------------------------------------------------
               CIS Excitation Energies              
 ---------------------------------------------------

 Excited state   1: excitation energy (eV) =    2.5026
    Total energy for state   1:   -764.584472687927
    Multiplicity: Triplet 
    Trans. Mom.:  0.0000 X   0.0000 Y   0.0000 Z
    Strength   :  0.0000
    D( 62) --> V(  4) amplitude = -0.2581
    D( 63) --> V(  1) amplitude = -0.7655
    D( 64) --> V(  1) amplitude = -0.4195

 Excited state   2: excitation energy (eV) =    2.7621
    Total energy for state   2:   -764.574934719847
    Multiplicity: Triplet 
    Trans. Mom.:  0.0000 X   0.0000 Y   0.0000 Z
    Strength   :  0.0000
    D( 61) --> V(  5) amplitude =  0.3206
    D( 64) --> V(  3) amplitude = -0.2978
    D( 65) --> V(  2) amplitude =  0.7943
 
 ---------------------------------------------------
  Timing summary (seconds)
  CPU time        983.30s
  System time       0.00s
  Wall time      1042.83s


 Entering the ER Localization Code for CIS excited states. 

NOTE: THIS HAS BEEN ONLY PARTIALLY TESTED FOR THE CASE THAT WE HAVE UNRESTRICTED ORBITALS.
INITIAL CENTER1 LOCATIONS: state 0  Occ x  5.928 y  0.227 z  0.122 Virt x  5.915 y  0.273 z  0.022
INITIAL CENTER1 LOCATIONS: state 1  Occ x -5.440 y -0.210 z -0.072 Virt x -5.456 y -0.185 z -0.067
INITIAL CENTER2 LOCATIONS: state 0  Occ x 43.034 y  4.537 z  2.488 Virt x 42.993 y  4.771 z  3.580
INITIAL CENTER2 LOCATIONS: state 1  Occ x 37.595 y  9.194 z  2.552 Virt x 38.086 y  9.894 z  2.426
INITIAL STANDARD DEVIATIONS: state 0  Occ x  2.809 y  2.118 z  1.573 Virt x  2.829 y  2.167 z  1.892
INITIAL STANDARD DEVIATIONS: state 1  Occ x  2.828 y  3.025 z  1.596 Virt x  2.885 y  3.140 z  1.556
INITIAL : state 0 sum of square of distances to other adiabatic states Occ 129.475943 Virt 129.517002
INITIAL : state 1 sum of square of distances to other adiabatic states Occ 129.475943 Virt 129.517002



Calling Random Orthogonal Matrix...
RandomSeed = 25
location random matrix in checkantisymmetry: max_diff = 0.000000e+00
location random matrix in checkunitary: max_diff = 0.000000e+00
 initially ruedvalue =    1.02327072046111     
showmatrix initial R-Matrix(0,0) =   0.5535224178
showmatrix initial R-Matrix(1,0) =   0.0028791333
showmatrix initial R-Matrix(0,1) =  -0.0037398468
showmatrix initial R-Matrix(1,1) =   0.4697483026
JacSwp  rnd     1 max_diff -9.999000e+03 ruedval     1.0234052709
In RUED_JACOBI SWEEPS for DIABATIC STATES, ending in round     1  because max_diff = 1.517883e-18
showmatrix final R-Matrix(0,0) =   0.5535985342
showmatrix final R-Matrix(1,0) =  -0.0000046164
showmatrix final R-Matrix(0,1) =  -0.0000046164
showmatrix final R-Matrix(1,1) =   0.4698067366
showmatrix final adiabatic -> diabatic RotMatrix(0,0) =   0.9999990541
showmatrix final adiabatic -> diabatic RotMatrix(1,0) =  -0.0013754588
showmatrix final adiabatic -> diabatic RotMatrix(0,1) =   0.0013754588
showmatrix final adiabatic -> diabatic RotMatrix(1,1) =   0.9999990541
location RotMatrix in boys_diabatic_nogs in checkunitary: max_diff = 2.220446e-16
showing H in adiabatic representation: NO coupling elements!!!
showmatrix adiabatH(0,0) =   0.0919681438
showmatrix adiabatH(1,0) =   0.0000000000
showmatrix adiabatH(0,1) =   0.0000000000
showmatrix adiabatH(1,1) =   0.1015061119
getting H in diabatic representation: WITH coupling elements!!!
showmatrix diabatH(0,0) =   0.0919681619
showmatrix diabatH(1,0) =  -0.0000131191
showmatrix diabatH(0,1) =  -0.0000131191
showmatrix diabatH(1,1) =   0.1015060939
FINAL CENTER LOCATIONS Spin Occ : state 0 x  5.928 y  0.227 z  0.122  Virt x  5.915 y  0.273 z  0.022
FINAL CENTER LOCATIONS Spin Occ : state 1 x -5.440 y -0.210 z -0.072  Virt x -5.456 y -0.185 z -0.067
FINAL CENTER2 LOCATIONS: state 0  Occ x 43.034 y  4.537 z  2.488 Virt x 42.993 y  4.771 z  3.580
FINAL CENTER2 LOCATIONS: state 1  Occ x 37.595 y  9.194 z  2.552 Virt x 38.086 y  9.894 z  2.426
FINAL STANDARD DEVIATIONS: state 0  Occ x  2.808 y  2.118 z  1.573 Virt x  2.829 y  2.167 z  1.892
FINAL STANDARD DEVIATIONS: state 1  Occ x  2.828 y  3.025 z  1.596 Virt x  2.885 y  3.140 z  1.556
FINAL: state 0 sum of square of distances to other Centers Occ 129.477026 Virt 129.517898 
FINAL: state 1 sum of square of distances to other Centers Occ 129.477026 Virt 129.517898 



Calculating ER second derivative! Everything should be negative. If so, we are done.
location hessian --max_diff from checksymmetry = 0.000000e+00
eval of hessian: count 0 eval -2.605953
 STSman time:  CPU 0.00 s  wall 0.00 s

 Analysis of SCF Wavefunction
 
 --------------------------------------------------------------
                    Orbital Energies (a.u.)
 --------------------------------------------------------------
 
 Alpha MOs
 -- Occupied --
-20.550 -11.324 -11.276 -11.259 -11.258 -11.251 -11.249 -11.248
-11.246 -11.245 -11.242 -11.241 -11.238 -11.235 -11.235 -11.235
-11.233 -11.233 -11.232  -1.381  -1.183  -1.160  -1.122  -1.071
 -1.048  -1.036  -1.015  -0.990  -0.954  -0.876  -0.847  -0.831
 -0.821  -0.813  -0.780  -0.707  -0.703  -0.700  -0.676  -0.663
 -0.643  -0.624  -0.619  -0.615  -0.603  -0.595  -0.585  -0.580
 -0.565  -0.560  -0.542  -0.535  -0.528  -0.510  -0.491  -0.487
 -0.476  -0.474  -0.443  -0.419  -0.383  -0.358  -0.323  -0.314
 -0.289
 -- Virtual --
  0.067   0.097   0.123   0.142   0.185   0.213   0.240   0.242
  0.250   0.256   0.267   0.279   0.281   0.300   0.312   0.318
  0.325   0.331   0.338   0.341   0.352   0.355   0.387   0.414
  0.417   0.426   0.436   0.450   0.470   0.481   0.487   0.497
  0.509   0.518   0.539   0.543   0.582   0.587   0.658   0.682
  0.691   0.712   0.721   0.730   0.731   0.731   0.739   0.745
  0.752   0.761   0.770   0.776   0.779   0.788   0.794   0.796
  0.801   0.814   0.820   0.823   0.826   0.836   0.846   0.851
  0.860   0.864   0.875   0.890   0.892   0.905   0.919   0.933
  0.949   0.954   0.965   0.978   1.015   1.024   1.037   1.042
  1.054   1.065   1.072   1.075   1.079   1.082   1.087   1.091
  1.093   1.109   1.117   1.120   1.124   1.130   1.165   1.168
  1.184   1.189   1.201   1.208   1.217   1.227   1.242   1.250
  1.261   1.276   1.299   1.305   1.314   1.325   1.355   1.373
  1.382   1.399   1.410   1.421   1.447   1.462   1.489   1.494
  1.499   1.503   1.520   1.540   1.571   1.590   1.596   1.607
  1.624   1.644   1.652   1.652   1.665   1.677   1.680   1.689
  1.698   1.704   1.719   1.741   1.753   1.763   1.797   1.817
  1.837   1.872   1.908   2.022   2.027   2.040   2.046   2.051
  2.059   2.075   2.085   2.102   2.112   2.117   2.134   2.150
  2.169   2.174   2.184   2.189   2.201   2.211   2.225   2.231
  2.235   2.242   2.254   2.261   2.272   2.282   2.299   2.301
  2.326   2.331   2.341   2.369   2.381   2.389   2.399   2.432
  2.444   2.446   2.462   2.509   2.521   2.542   2.550   2.567
  2.588   2.601   2.610   2.619   2.625   2.632   2.648   2.653
  2.676   2.700   2.707   2.715   2.719   2.736   2.743   2.745
  2.765   2.776   2.789   2.798   2.810   2.819   2.831   2.861
  2.864   2.878   2.888   2.892   2.899   2.917   2.941   2.948
  2.949   2.954   2.959   2.973   2.986   3.011   3.017   3.029
  3.049   3.057   3.082   3.089   3.108   3.134   3.148   3.174
  3.183   3.197   3.228   3.237   3.277   3.347   3.371   3.393
  3.416   3.442   3.468   3.522   3.535   3.549   3.617   3.628
  3.633   3.641   3.656   3.683   3.729   3.735   3.804   3.849
  3.870   3.887   3.892   3.917   4.161   4.199   4.312   4.360
  4.524   4.542   4.566   4.571   4.581   4.584   4.621   4.630
  4.734   4.761   4.824   4.847   4.894   4.920   4.973   5.106
  5.245   5.372
 --------------------------------------------------------------
 
          Ground-State Mulliken Net Atomic Charges

     Atom                 Charge (a.u.)
  ----------------------------------------
      1 C                    -0.158114
      2 C                    -0.126776
      3 C                    -0.032796
      4 C                    -0.039661
      5 C                    -0.126268
      6 C                    -0.158741
      7 H                     0.163383
      8 H                     0.152452
      9 H                     0.155160
     10 C                    -0.131009
     11 C                    -0.122074
     12 H                     0.152444
     13 H                     0.151824
     14 C                    -0.164663
     15 C                    -0.036371
     16 H                     0.155021
     17 H                     0.146956
     18 C                    -0.222263
     19 H                     0.150711
     20 H                     0.145743
     21 C                    -0.015074
     22 C                    -0.149005
     23 C                    -0.167936
     24 C                    -0.112725
     25 H                     0.160843
     26 C                    -0.085119
     27 H                     0.157255
     28 C                    -0.177531
     29 H                     0.166430
     30 H                     0.199313
     31 C                     0.396366
     32 H                     0.108597
     33 O                    -0.536373
  ----------------------------------------
  Sum of atomic charges =     0.000000

 -----------------------------------------------------------------
                    Cartesian Multipole Moments
 -----------------------------------------------------------------
    Charge (ESU x 10^10)
                 0.0000
    Dipole Moment (Debye)
         X      -3.4796      Y       1.8736      Z       1.3958
       Tot       4.1912
    Quadrupole Moments (Debye-Ang)
        XX    -130.6133     XY       8.3972     YY    -104.5486
        XZ       4.7771     YZ      -1.7292     ZZ    -106.8740
    Octopole Moments (Debye-Ang^2)
       XXX    -239.2301    XXY      46.3648    XYY     -34.8797
       YYY      -2.2055    XXZ      58.0594    XYZ     -24.7820
       YYZ       1.4082    XZZ      45.0373    YZZ      -0.6781
       ZZZ       1.2560
    Hexadecapole Moments (Debye-Ang^3)
      XXXX   -8550.6774   XXXY     395.0667   XXYY   -1539.1859
      XYYY      23.1590   YYYY   -1314.4545   XXXZ     140.1117
      XXYZ     -69.0949   XYYZ      16.6430   YYYZ      17.0509
      XXZZ   -1300.3424   XYZZ     -35.3099   YYZZ    -314.7993
      XZZZ      -0.4419   YZZZ     -15.1388   ZZZZ    -423.7673
 -----------------------------------------------------------------
Archival summary:
1\1\fermi.chem.uh.edu\SP\HF\6-31G**\11814\xunmo\FriFeb2813:38:512014FriFeb2813:38:512014\0\\#,HF,6-31G**,\\0,1\C\C,1,1.36107\H,2,1.076,1,120.152\C,2,1.42097,1,121.546,3,179.939,0\C,4,1.40729,2,119.279,1,-0.0694259,0\C,5,1.41941,4,119.196,2,179.937,0\H,6,1.07642,5,118.924,4,-179.969,0\C,6,1.35842,5,120.666,4,0.0732149,0\H,8,1.07562,6,120.269,5,179.95,0\C,8,1.4159,6,120.197,5,-0.0335349,0\H,10,1.07569,8,119.484,6,179.981,0\C,10,1.3585,8,120.347,6,-0.0269475,0\H,12,1.07629,10,120.372,8,-179.985,0\C,5,1.41989,4,118.455,2,0.0315722,0\H,14,1.07646,5,118.988,4,179.839,0\C,14,1.35646,5,120.831,4,0.085058,0\H,16,1.07674,14,119.714,5,179.805,0\C,1,1.5238,2,122.549,3,-1.79244,0\H,18,1.08708,1,108.803,2,-92.5434,0\H,18,1.08954,1,108.005,2,153.052,0\C,18,1.50337,1,115.471,2,30.6713,0\C,21,1.4175,18,122.743,1,-116.236,0\H,22,1.07651,21,118.684,18,1.0933,0\C,22,1.36427,21,122.014,18,-178.903,0\H,24,1.07147,22,122.197,21,-179.966,0\C,21,1.46709,18,119.486,1,64.882,0\H,26,1.07557,21,118.286,18,-1.42984,0\C,26,1.35372,21,121.657,18,178.699,0\H,28,1.07573,26,120.674,21,-179.799,0\C,28,1.43816,26,120.16,21,0.295912,0\C,30,1.44018,28,121.066,26,179.855,0\H,31,1.0918,30,116.403,28,0.0706354,0\O,31,1.21047,30,123.168,28,-179.912,0\\HF=-764.676441\\@

 Total job time:  1254.91s(wall), 1191.11s(cpu) 
 Fri Feb 28 13:38:51 2014

        *************************************************************
        *                                                           *
        *  Thank you very much for using Q-Chem.  Have a nice day.  *
        *                                                           *
        *************************************************************


0 sent ACK to 0 
now end server 0 ... 
cleanup process ... done
